 +-------------------------------------------------+
 |                                                 |
 |      CCC   AA    SSS  TTTTT  EEEEE  PPPP        |
 |     C     A  A  S       T    E      P   P       |
 |     C     AAAA   SS     T    EEE    PPPP        |
 |     C     A  A     S    T    E      P           |
 |      CCC  A  A  SSS     T    EEEEE  P           |
 |                                                 |
 +-------------------------------------------------+
 |                                                 |
 | Welcome to Academic Release CASTEP version 19.11|          
 | Ab Initio Total Energy Program                  |
 |                                                 |
 | Authors:                                        |
 | M. Segall, M. Probert, C. Pickard, P. Hasnip,   |
 | S. Clark, K. Refson, J. R. Yates, M. Payne      |
 |                                                 |
 | Contributors:                                   |
 | P. Lindan, P. Haynes, J. White, V. Milman,      |
 | N. Govind, M. Gibson, P. Tulip, V. Cocula,      |
 | B. Montanari, D. Quigley, M. Glover,            |
 | L. Bernasconi, A. Perlov, M. Plummer,           |
 | E. McNellis, J. Meyer, J. Gale, D. Jochym       |
 | J. Aarons, B. Walker, R. Gillen, D. Jones       |
 | T. Green, I. J. Bush, C. J. Armstrong,          |
 | E. J. Higgins, E. L. Brown, M. S. McFly,        |
 | J. Wilkins, B-C. Shih, P. J. P. Byrne           |
 |                                                 |
 | Copyright (c) 2000 - 2018                       |
 |                                                 |
 |     Distributed under the terms of an           |
 |     Agreement between the United Kingdom        |
 |     Car-Parrinello (UKCP) Consortium,           |
 |     Daresbury Laboratory and Accelrys, Inc.     |
 |                                                 |
 | Please cite                                     |
 |                                                 |
 |     "First principles methods using CASTEP"     |
 |                                                 |
 |         Zeitschrift fuer Kristallographie       |
 |           220(5-6) pp. 567-570 (2005)           |
 |                                                 |
 | S. J. Clark, M. D. Segall, C. J. Pickard,       |
 | P. J. Hasnip, M. J. Probert, K. Refson,         |
 | M. C. Payne                                     |
 |                                                 |
 |       in all publications arising from          |
 |              your use of CASTEP                 |
 |                                                 |
 +-------------------------------------------------+
 |                                                 |
 |              http://www.castep.org              |
 |                                                 |
 +-------------------------------------------------+



 Compiled for linux_x86_64_gfortran7.0 on Mon, 30 Mar 2020 12:17:21 +0100
 from code version e1fe0d666396+ Castep191_branch Thu, 24 Oct 2019 13:54:03 +0100
 Compiler: GNU Fortran 7.5.0; Optimisation: fast
 MATHLIBS: Intel MKL(2019.0.5) (LAPACK version 3.7.0)
 FFT Lib : mkl
 Fundamental constants values: CODATA 2014

 Run started: Wed, 04 Nov 2020 19:32:31 +0000

 ******************************* User Parameters *******************************
iprint              : 3          # verbosity control (I)
reuse               : base.check # reuse filename (S)
writebib            : F          # output BibTeX references (L)
writeotfg           : F          # output OTFG files (L)
writecstesp         : F          # output cst_esp file (L)
spin                : 5.0000000  # net spin (R)
spinpolarised       : T          # spin polarised (L)
%block develcode    :            # developers code (B)
iprintu=8,
%endblock develcode :            # developers code (B)

 *******************************************************************************
  

 Atomic calculation performed for O: 1s2 2s2 2p4

 Converged in 60 iterations to an ae energy of -2027.926 eV


 Atomic calculation performed for Mn: 1s2 2s2 2p6 3s2 3p6 3d5 4s2

 Converged in 96 iterations to an ae energy of -31460.102 eV


 Pseudo atomic calculation performed for O 2s2 2p4

 Converged in 24 iterations to a total energy of -431.0932 eV

 Pseudo atomic calculation performed for Mn 3s2 3p6 3d5 4s2

 Converged in 38 iterations to a total energy of -2902.3718 eV
Initialising basis set.

Standard grid dimensions:  48  36  36
Fine grid dimensions:      48  36  36

Plane wave load balancing: max   5869 min   5847 average   5864
True cut-off energy of basis :  22.996
 Reusing data from model file base.check
 Number of symmetry ops  =           1

 ******************************* User Parameters *******************************
iprint              : 3          # verbosity control (I)
reuse               : base.check # reuse filename (S)
writebib            : F          # output BibTeX references (L)
writeotfg           : F          # output OTFG files (L)
writecstesp         : F          # output cst_esp file (L)
spin                : 5.0000000  # net spin (R)
spinpolarised       : T          # spin polarised (L)
%block develcode    :            # developers code (B)
iprintu=8,
%endblock develcode :            # developers code (B)

 *******************************************************************************
  

 Atomic calculation performed for O: 1s2 2s2 2p4

 Converged in 60 iterations to an ae energy of -2027.926 eV


 Atomic calculation performed for Mn: 1s2 2s2 2p6 3s2 3p6 3d5 4s2

 Converged in 96 iterations to an ae energy of -31460.102 eV


 Pseudo atomic calculation performed for O 2s2 2p4

 Converged in 24 iterations to a total energy of -431.0932 eV

 Pseudo atomic calculation performed for Mn 3s2 3p6 3d5 4s2

 Converged in 38 iterations to a total energy of -2902.3718 eV
Initialising basis set.

Standard grid dimensions:  48  36  36
Fine grid dimensions:      48  36  36

Plane wave load balancing: max   5869 min   5847 average   5864
True cut-off energy of basis :  22.996
K-point set unchanged, read in wavefunction.
Reusing density from model file.
 Calculation parallelised over 2 processes.
 Data is distributed by k-point(2-way)

 ************************************ Title ************************************
 

 ***************************** General Parameters ******************************
  
 output verbosity                               : extreme (3)
 reusing                                        : base.check
 write checkpoint data to                       : MnO.check
 type of calculation                            : single point energy
 stress calculation                             : off
 density difference calculation                 : off
 electron localisation func (ELF) calculation   : off
 Hirshfeld analysis                             : off
 unlimited duration calculation
 timing information                             : on
 memory usage estimate                          : on
 write extra output files                       : on
 write final potential to formatted file        : off
 write final density to formatted file          : off
 write BibTeX reference list                    : off
 write OTFG pseudopotential files               : off
 write electrostatic potential file             : off
 write bands file                               : on
 checkpoint writing                             : both castep_bin and check files
  
 output         length unit                     : A
 output           mass unit                     : amu
 output           time unit                     : ps
 output         charge unit                     : e
 output           spin unit                     : hbar/2
 output         energy unit                     : eV
 output          force unit                     : eV/A
 output       velocity unit                     : A/ps
 output       pressure unit                     : GPa
 output     inv_length unit                     : 1/A
 output      frequency unit                     : cm-1
 output force constant unit                     : eV/A**2
 output         volume unit                     : A**3
 output   IR intensity unit                     : (D/A)**2/amu
 output         dipole unit                     : D
 output         efield unit                     : eV/A/e
 output        entropy unit                     : J/mol/K
  
 wavefunctions paging                           : none
 random number generator seed                   : randomised (193238198)
 data distribution                              : optimal for this architecture
 optimization strategy                          : balance speed and memory

 *********************** Exchange-Correlation Parameters ***********************
  
 using functional                               : Local Density Approximation
 relativistic treatment                         : Koelling-Harmon
 DFT+D: Semi-empirical dispersion correction    : off

 ************************* Pseudopotential Parameters **************************
  
 pseudopotential representation                 : reciprocal space
 <beta|phi> representation                      : reciprocal space
 spin-orbit coupling                            : off

 **************************** Basis Set Parameters *****************************
  
 basis set accuracy                             : FINE
 plane wave basis set cut-off                   :   625.8619   eV
 size of standard grid                          :     1.7500
 size of   fine   gmax                          :    22.4293   1/A
 largest prime factor in FFT                    :          5
 finite basis set correction                    : none

 **************************** Electronic Parameters ****************************
  
 number of  electrons                           :  21.00    
 net charge of system                           :  0.000    
 net spin   of system                           :  5.000    
 number of  up  spins                           :  13.00    
 number of down spins                           :  8.000    
 treating system as spin-polarized
 number of bands                                :         17

 ********************* Electronic Minimization Parameters **********************
  
 Method: Treating system as metallic with density mixing treatment of electrons,
         and number of  SD  steps               :          1
         and number of  CG  steps               :          4
  
 total energy / atom convergence tol.           : 0.1000E-04   eV
 eigen-energy convergence tolerance             : 0.1000E-05   eV
 max force / atom convergence tol.              : ignored
 convergence tolerance window                   :          3   cycles
 max. number of SCF cycles                      :         30
 number of fixed-spin iterations                :         10
 smearing scheme                                : Gaussian
 smearing width                                 : 0.2000       eV
 Fermi energy convergence tolerance             : 0.2721E-13   eV
 periodic dipole correction                     : NONE

 ************************** Density Mixing Parameters **************************
  
 density-mixing scheme                          : Broyden
 max. length of mixing history                  :         20
 charge density mixing amplitude                : 0.8000    
   spin density mixing amplitude                :  2.000    
 charge density mixing g-vector                 :  1.500       1/A
   spin density mixing g-vector                 :  1.500       1/A

 *********************** Population Analysis Parameters ************************
  
 Population analysis with cutoff                :  3.000       A
 Population analysis output                     : summary and pdos components

 ******************************* Developer Code ********************************
  
 iprintu=8,

 *******************************************************************************
  

                           -------------------------------
                                      Unit Cell
                           -------------------------------
        Real Lattice(A)                      Reciprocal Lattice(1/A)
     6.6000000     0.0000000     0.0000000        0.951997774   0.000000000   0.000000000
     0.0000000     5.0000000     0.0000000        0.000000000   1.256637061   0.000000000
     0.0000000     0.0000000     5.0000000        0.000000000   0.000000000   1.256637061

                       Lattice parameters(A)       Cell Angles
                    a =      6.600000          alpha =   90.000000
                    b =      5.000000          beta  =   90.000000
                    c =      5.000000          gamma =   90.000000

                       Current cell volume =           165.000000       A**3
                                   density =             0.429924   AMU/A**3
                                           =             0.713905     g/cm^3

                           -------------------------------
                                     Cell Contents
                           -------------------------------
                         Total number of ions in cell =    2
                      Total number of species in cell =    2
                        Max number of any one species =    1

            xxxxxxxxxxxxxxxxxxxxxxxxxxxxxxxxxxxxxxxxxxxxxxxxxxxxxxxxxxxx
            x  Element    Atom        Fractional coordinates of atoms  x
            x            Number           u          v          w      x
            x----------------------------------------------------------x
            x  O            1         0.621212   0.500000   0.500000   x 
            x  Mn           1         0.378788   0.500000   0.500000   x 
            xxxxxxxxxxxxxxxxxxxxxxxxxxxxxxxxxxxxxxxxxxxxxxxxxxxxxxxxxxxx


                         No user defined ionic velocities

                           -------------------------------
                                   Details of Species
                           -------------------------------

                               Mass of species in AMU
                                    O   15.9994000
                                    Mn   54.9380500

                          Electric Quadrupole Moment (Barn)
                                    O   -0.0255800 Isotope 17
                                    Mn    0.3300000 Isotope 55


         Quantisation axis:    0.00000   0.00000   1.00000

         Units for Hubbard U values are eV
         xxxxxxxxxxxxxxxxxxxxxxxxxxxxxxxxxxxxxxxxxxxxxxxxxxxxxxxxxxxxxxxxxxxx
         |  Element     Atom     Hubbard U   values by orbital type         |
         |             Number      s          p          d          f       |
         |------------------------------------------------------------------|
         |O             1         0.00000    0.00000    0.00000    0.00000  |
         |Mn            1         0.00000    0.00000    0.00000    0.00000  |
         xxxxxxxxxxxxxxxxxxxxxxxxxxxxxxxxxxxxxxxxxxxxxxxxxxxxxxxxxxxxxxxxxxxx


                          Files used for pseudopotentials:
                                    O 2|1.1|17|20|23|20:21(qc=8)
                                    Mn 3|1.8|1.8|0.6|12|14|16|30U:40:31:32(qc=7)

                           -------------------------------
                              k-Points For BZ Sampling
                           -------------------------------
                       MP grid size for SCF calculation is  2  3  3
                            with an offset of   0.000  0.000  0.000
                       Number of kpoints used =             9

             +++++++++++++++++++++++++++++++++++++++++++++++++++++++
             +  Number       Fractional coordinates        Weight  +
             +-----------------------------------------------------+
             +     1  -0.250000  -0.333333  -0.333333   0.1111111  +
             +     2  -0.250000  -0.333333   0.333333   0.1111111  +
             +     3  -0.250000   0.000000  -0.333333   0.1111111  +
             +     4  -0.250000   0.000000   0.000000   0.1111111  +
             +     5  -0.250000   0.000000   0.333333   0.1111111  +
             +     6  -0.250000   0.333333   0.000000   0.1111111  +
             +     7  -0.250000   0.333333   0.333333   0.1111111  +
             +     8   0.250000  -0.333333   0.333333   0.1111111  +
             +     9   0.250000   0.333333   0.000000   0.1111111  +
             +++++++++++++++++++++++++++++++++++++++++++++++++++++++

                           -------------------------------
                               Symmetry and Constraints
                           -------------------------------

                      Maximum deviation from symmetry =  0.00000         ANG

                      Number of symmetry operations   =           1
                      Number of ionic constraints     =           3
                      Point group of crystal =     1: C1, 1, 1
                      Space group of crystal =    99: P4mm, P 4 -2

                    1 rotation    
                 (   1.00000000000   0.00000000000   0.00000000000 )
                 (   0.00000000000   1.00000000000   0.00000000000 )
                 (   0.00000000000   0.00000000000   1.00000000000 )
                    1 displacement
                 (   0.00000000000   0.00000000000   0.00000000000 )
                      symmetry related atoms: 
             O:    1
             Mn:    1


                         Centre of mass is constrained

            xxxxxxxxxxxxxxxxxxxxxxxxxxxxxxxxxxxxxxxxxxxxxxxxxxxxxxxxxxxxxx....
            x  Species       atom   co-ordinate  constraints.....         
            x-------------------------------------------------------------....
            x O                 1       x        29165.1220      0.0000      0.0000
            x O                 1       y            0.0000  29165.1220      0.0000
            x O                 1       z            0.0000      0.0000  29165.1220
            x Mn                1       x       100145.9388      0.0000      0.0000
            x Mn                1       y            0.0000 100145.9388      0.0000
            x Mn                1       z            0.0000      0.0000 100145.9388
            xxxxxxxxxxxxxxxxxxxxxxxxxxxxxxxxxxxxxxxxxxxxxxxxxxxxxxxxxxxxxx....

                         Number of cell constraints= 0
                         Cell constraints are:  1 2 3 4 5 6

                         External pressure/stress (GPa)
                          0.00000   0.00000   0.00000
                                    0.00000   0.00000
                                              0.00000
Density mixing plane wave load balancing: max      0 min      0 average      0
  
+---------------- MEMORY AND SCRATCH DISK ESTIMATES PER PROCESS --------------+
|                                                     Memory          Disk    |
| Baseline code, static data and system overhead      354.0 MB         0.0 MB |
| BLAS internal memory storage                          0.0 MB         0.0 MB |
| Model and support data                               67.2 MB       110.4 MB |
| Electronic energy minimisation requirements          51.6 MB         0.0 MB |
| Force calculation requirements                       13.8 MB         0.0 MB |
|                                               ----------------------------- |
| Approx. total storage required per process          472.8 MB       110.4 MB |
|                                                                             |
| Requirements will fluctuate during execution and may exceed these estimates |
+-----------------------------------------------------------------------------+
Calculating total energy with cut-off of  625.862 eV.
electronic_minimisation: Initialising

 Pseudo atomic calculation performed for O 2s2 2p4

 Converged in 24 iterations to a total energy of -431.0932 eV

 Pseudo atomic calculation performed for Mn 3s2 3p6 3d5 4s2

 Converged in 38 iterations to a total energy of -2902.3718 eV
  Initializing Hubbard U occ matrix: 

     Hubbard U occupation numbers
     ----------------------------
Species   Ion   l  spin               occupancies
==================================================================
  Mn       1    2   up:   0.00  0.00  1.00  1.00  1.00
                    dn:   0.00  0.00  1.00  1.00  1.00
==================================================================

electronic_minimisation: Initialising density mixing
 Initialising mixing density basis set.
Density mixing plane wave load balancing: max   5871 min   5871 average   5871
Calculating Ewald energy for ionic configuration
              Ewald: real-space energy =     359.826811 eV
        Ewald: reciprocal-space energy =      93.920754 eV
         Ewald: (sum_charge)**2 Energy =     459.468501 eV
         Ewald: (sum_charge**2) Energy =     769.135141 eV
                          Ewald Energy =    -774.856077 eV
Calculating non-Coulombic energy for ionic configuration
Symmetrising density
Calculating local potential
Calculating Hubbard U potential
 Density matrix in cubic harmonics:
     1.0000     0.0000     0.0000     0.0000     0.0000
     0.0000     0.0000     0.0000     0.0000     0.0000
     0.0000     0.0000     0.0000     0.0000     0.0000
     0.0000     0.0000     0.0000     0.0000     0.0000
     0.0000     0.0000     0.0000     0.0000     0.0000
     0.0000     0.0000     0.0000     0.0000     0.0000
     0.0000     0.0000     0.0000     1.0000     0.0000
     0.0000     0.0000     0.0000     0.0000     0.0000
     0.0000     0.0000     0.0000     0.0000     1.0000
     0.0000     0.0000     0.0000     0.0000     0.0000
 Hermiticity:        (-4.44089209850062616E-016,0.0000000000000000)
 Density matrix in cubic harmonics:
     1.0000     0.0000     0.0000     0.0000     0.0000
     0.0000     0.0000     0.0000     0.0000     0.0000
     0.0000     0.0000     0.0000     0.0000     0.0000
     0.0000     0.0000     0.0000     0.0000     0.0000
     0.0000     0.0000     0.0000     0.0000     0.0000
     0.0000     0.0000     0.0000     0.0000     0.0000
     0.0000     0.0000     0.0000     1.0000     0.0000
     0.0000     0.0000     0.0000     0.0000     0.0000
     0.0000     0.0000     0.0000     0.0000     1.0000
     0.0000     0.0000     0.0000     0.0000     0.0000
 Hermiticity:        (-4.44089209850062616E-016,0.0000000000000000)
Calculating non-local weights
Calculating KE and non-local eigenvalues to find total energy
 
Init
Exchange-correlation energy      =      -499.07913191541501874 eV
+Hartree energy                  =      2055.86480228865912068 eV
+Local pseudopotential energy    =     -5072.04198973965321784 eV
----------------------------------
Potential energy (total)         =     -3515.25631936638410480 eV
                                  
+Hubbard U energy                =         1.43999999999999995 eV
+Kinetic energy                  =       776.91409201055114409 eV
+Non-local energy                =       152.02656221898419631 eV
+Electronic entropy term (-TS)   =         0.00000000000000000 eV
+Ewald energy (const)            =      -774.85607651874397561 eV
+non-Coulombic energy (const)    =        13.80612138473854067 eV
----------------------------------
Total free energy (E-TS)         =     -3345.92562027085432419 eV
 
NB est. 0K energy (E-0.5TS)      =     -3345.92562027085432419 eV
 
(XC correction to eigenvalue sum =        44.01690523340165129 eV)
(Hubbard U correction to eigenvalu         0.00000003000000000 eV)
 
------------------------------------------------------------------------ <-- SCF
SCF loop      Energy           Fermi           Energy gain       Timer   <-- SCF
                               energy          per atom          (sec)   <-- SCF
------------------------------------------------------------------------ <-- SCF
Initial  -3.34592562E+003  0.00000000E+000                        14.87  <-- SCF
Starting SCF cycle     1 of up to    30
 no. bands in each block=           8
Kinetic eigenvalue #   1 =     0.38348966E+02
Kinetic eigenvalue #   2 =     0.39990483E+02
Kinetic eigenvalue #   3 =     0.39990481E+02
Kinetic eigenvalue #   4 =     0.39595183E+02
Kinetic eigenvalue #   5 =     0.25112526E+02
Kinetic eigenvalue #   6 =     0.42186730E+02
Kinetic eigenvalue #   7 =     0.37391956E+02
Kinetic eigenvalue #   8 =     0.37412407E+02
Kinetic eigenvalue #   9 =     0.37900587E+02
Kinetic eigenvalue #  10 =     0.37455926E+02
Kinetic eigenvalue #  11 =     0.23372304E+02
Kinetic eigenvalue #  12 =     0.38336692E+02
Kinetic eigenvalue #  13 =     0.38452582E+02
Kinetic eigenvalue #  14 =     0.24719286E+02
Kinetic eigenvalue #  15 =     0.13655775E+02
Kinetic eigenvalue #  16 =     0.14273377E+02
Kinetic eigenvalue #  17 =     0.77296045E+01
 Calculating the R matrix for the precon Sinv operator
 Diagonalising expanded subspace
 Copying updated data back
eigenvalue    1 init= -83.96     fin= -83.96     change= 0.2190E-08
eigenvalue    2 init= -53.14     fin= -53.14     change= 0.6072E-10
eigenvalue    3 init= -53.14     fin= -53.14     change= 0.5436E-10
eigenvalue    4 init= -52.98     fin= -52.98     change= 0.3034E-08
eigenvalue    5 init= -20.19     fin= -20.19     change= 0.6122E-05
eigenvalue    6 init= -7.540     fin= -7.540     change= 0.4228E-04
eigenvalue    7 init= -7.083     fin= -7.083     change= 0.8261E-05
eigenvalue    8 init= -7.082     fin= -7.082     change= 0.8155E-05
 Checking convergence criteria
 Diagonalising expanded subspace
 Copying updated data back
eigenvalue    1 init= -83.96     fin= -83.96     change= 0.2204E-08
eigenvalue    2 init= -53.14     fin= -53.14     change= 0.6126E-10
eigenvalue    3 init= -53.14     fin= -53.14     change= 0.5464E-10
eigenvalue    4 init= -52.98     fin= -52.98     change= 0.3218E-08
eigenvalue    5 init= -20.19     fin= -20.19     change= 0.6457E-05
eigenvalue    6 init= -7.540     fin= -7.540     change= 0.4515E-04
eigenvalue    7 init= -7.083     fin= -7.083     change= 0.8936E-05
eigenvalue    8 init= -7.082     fin= -7.082     change= 0.8803E-05
 Checking convergence criteria
 Diagonalising expanded subspace
 Copying updated data back
eigenvalue    9 init= -5.611     fin= -5.611     change= 0.2130E-06
eigenvalue   10 init= -5.441     fin= -5.441     change= 0.1000E-05
eigenvalue   11 init= -4.178     fin= -4.178     change= 0.2757E-04
eigenvalue   12 init= -3.561     fin= -3.561     change= 0.7103E-05
eigenvalue   13 init= -3.533     fin= -3.533     change= 0.1206E-04
eigenvalue   14 init= -1.740     fin= -1.740     change= 0.2734E-04
eigenvalue   15 init= 0.3054     fin= 0.3054     change= 0.1034E-05
eigenvalue   16 init= 0.4360     fin= 0.4360     change= 0.5323E-06
 Checking convergence criteria
 Diagonalising expanded subspace
 Copying updated data back
eigenvalue    9 init= -5.611     fin= -5.611     change= 0.2135E-06
eigenvalue   10 init= -5.441     fin= -5.441     change= 0.1108E-05
eigenvalue   11 init= -4.178     fin= -4.178     change= 0.3048E-04
eigenvalue   12 init= -3.561     fin= -3.561     change= 0.7950E-05
eigenvalue   13 init= -3.533     fin= -3.533     change= 0.1335E-04
eigenvalue   14 init= -1.740     fin= -1.740     change= 0.3111E-04
eigenvalue   15 init= 0.3054     fin= 0.3054     change= 0.1423E-05
eigenvalue   16 init= 0.4360     fin= 0.4360     change= 0.6411E-06
 Checking convergence criteria
 Diagonalising expanded subspace
 Copying updated data back
eigenvalue   17 init=  2.642     fin=  2.642     change= 0.2100E-05
 Checking convergence criteria
 Diagonalising expanded subspace
 Copying updated data back
eigenvalue   17 init=  2.642     fin=  2.642     change= 0.4146E-05
 Checking convergence criteria
 Diagonalising expanded subspace
 Copying updated data back
eigenvalue   17 init=  2.642     fin=  2.642     change= 0.5754E-05
 Checking convergence criteria
 Diagonalising expanded subspace
 Copying updated data back
eigenvalue   17 init=  2.642     fin=  2.642     change= 0.7078E-05
 Checking convergence criteria
 Diagonalising expanded subspace
 Copying updated data back
eigenvalue   17 init=  2.642     fin=  2.642     change= 0.7841E-05
 Checking convergence criteria
 no. bands in each block=           8
Kinetic eigenvalue #   1 =     0.38348939E+02
Kinetic eigenvalue #   2 =     0.39990472E+02
Kinetic eigenvalue #   3 =     0.39990660E+02
Kinetic eigenvalue #   4 =     0.39595175E+02
Kinetic eigenvalue #   5 =     0.25099043E+02
Kinetic eigenvalue #   6 =     0.42122292E+02
Kinetic eigenvalue #   7 =     0.37333011E+02
Kinetic eigenvalue #   8 =     0.37797759E+02
Kinetic eigenvalue #   9 =     0.37459158E+02
Kinetic eigenvalue #  10 =     0.37726085E+02
Kinetic eigenvalue #  11 =     0.20289061E+02
Kinetic eigenvalue #  12 =     0.37545413E+02
Kinetic eigenvalue #  13 =     0.41168583E+02
Kinetic eigenvalue #  14 =     0.25570923E+02
Kinetic eigenvalue #  15 =     0.13556301E+02
Kinetic eigenvalue #  16 =     0.80528776E+01
Kinetic eigenvalue #  17 =     0.17119358E+02
 Calculating the R matrix for the precon Sinv operator
 Diagonalising expanded subspace
 Copying updated data back
eigenvalue    1 init= -83.96     fin= -83.96     change= 0.2354E-08
eigenvalue    2 init= -53.14     fin= -53.14     change= 0.5739E-10
eigenvalue    3 init= -53.14     fin= -53.14     change= 0.5057E-10
eigenvalue    4 init= -52.98     fin= -52.98     change= 0.2732E-08
eigenvalue    5 init= -20.19     fin= -20.19     change= 0.5485E-05
eigenvalue    6 init= -7.544     fin= -7.544     change= 0.3793E-04
eigenvalue    7 init= -7.087     fin= -7.087     change= 0.8825E-05
eigenvalue    8 init= -7.052     fin= -7.052     change= 0.4764E-05
 Checking convergence criteria
 Diagonalising expanded subspace
 Copying updated data back
eigenvalue    1 init= -83.96     fin= -83.96     change= 0.2382E-08
eigenvalue    2 init= -53.14     fin= -53.14     change= 0.5774E-10
eigenvalue    3 init= -53.14     fin= -53.14     change= 0.5069E-10
eigenvalue    4 init= -52.98     fin= -52.98     change= 0.2896E-08
eigenvalue    5 init= -20.19     fin= -20.19     change= 0.5769E-05
eigenvalue    6 init= -7.544     fin= -7.544     change= 0.4043E-04
eigenvalue    7 init= -7.087     fin= -7.087     change= 0.9516E-05
eigenvalue    8 init= -7.052     fin= -7.052     change= 0.5058E-05
 Checking convergence criteria
 Diagonalising expanded subspace
 Copying updated data back
eigenvalue    9 init= -5.643     fin= -5.643     change= 0.3790E-06
eigenvalue   10 init= -5.423     fin= -5.423     change= 0.6687E-06
eigenvalue   11 init= -4.438     fin= -4.438     change= 0.2217E-04
eigenvalue   12 init= -3.581     fin= -3.581     change= 0.1006E-04
eigenvalue   13 init= -3.430     fin= -3.430     change= 0.3884E-05
eigenvalue   14 init= -1.925     fin= -1.925     change= 0.2726E-04
eigenvalue   15 init= -.5933E-01 fin= -.5933E-01 change= 0.1239E-05
eigenvalue   16 init=  2.027     fin=  2.027     change= 0.4661E-05
 Checking convergence criteria
 Diagonalising expanded subspace
 Copying updated data back
eigenvalue    9 init= -5.643     fin= -5.643     change= 0.3901E-06
eigenvalue   10 init= -5.423     fin= -5.423     change= 0.6707E-06
eigenvalue   11 init= -4.438     fin= -4.438     change= 0.2480E-04
eigenvalue   12 init= -3.581     fin= -3.581     change= 0.1127E-04
eigenvalue   13 init= -3.430     fin= -3.430     change= 0.4176E-05
eigenvalue   14 init= -1.925     fin= -1.925     change= 0.3153E-04
eigenvalue   15 init= -.5933E-01 fin= -.5933E-01 change= 0.1604E-05
eigenvalue   16 init=  2.027     fin=  2.027     change= 0.7055E-05
 Checking convergence criteria
 Diagonalising expanded subspace
 Copying updated data back
eigenvalue    9 init= -5.643     fin= -5.643     change= 0.3926E-06
eigenvalue   10 init= -5.423     fin= -5.423     change= 0.6708E-06
eigenvalue   11 init= -4.438     fin= -4.438     change= 0.2499E-04
eigenvalue   12 init= -3.581     fin= -3.581     change= 0.1137E-04
eigenvalue   13 init= -3.430     fin= -3.430     change= 0.4183E-05
eigenvalue   14 init= -1.925     fin= -1.925     change= 0.3204E-04
eigenvalue   15 init= -.5933E-01 fin= -.5933E-01 change= 0.1682E-05
eigenvalue   16 init=  2.027     fin=  2.027     change= 0.8346E-05
 Checking convergence criteria
 Diagonalising expanded subspace
 Copying updated data back
eigenvalue   17 init=  2.484     fin=  2.484     change= 0.1312E-06
 Checking convergence criteria
 no. bands in each block=           8
Kinetic eigenvalue #   1 =     0.38348954E+02
Kinetic eigenvalue #   2 =     0.39990472E+02
Kinetic eigenvalue #   3 =     0.39990660E+02
Kinetic eigenvalue #   4 =     0.39595175E+02
Kinetic eigenvalue #   5 =     0.25099043E+02
Kinetic eigenvalue #   6 =     0.42122290E+02
Kinetic eigenvalue #   7 =     0.37333009E+02
Kinetic eigenvalue #   8 =     0.37797753E+02
Kinetic eigenvalue #   9 =     0.37459157E+02
Kinetic eigenvalue #  10 =     0.37726085E+02
Kinetic eigenvalue #  11 =     0.20289048E+02
Kinetic eigenvalue #  12 =     0.37545412E+02
Kinetic eigenvalue #  13 =     0.41168606E+02
Kinetic eigenvalue #  14 =     0.25570897E+02
Kinetic eigenvalue #  15 =     0.13556246E+02
Kinetic eigenvalue #  16 =     0.80526225E+01
Kinetic eigenvalue #  17 =     0.17119021E+02
 Calculating the R matrix for the precon Sinv operator
 Diagonalising expanded subspace
 Copying updated data back
eigenvalue    1 init= -83.96     fin= -83.96     change= 0.2217E-08
eigenvalue    2 init= -53.14     fin= -53.14     change= 0.5721E-10
eigenvalue    3 init= -53.14     fin= -53.14     change= 0.5046E-10
eigenvalue    4 init= -52.98     fin= -52.98     change= 0.2732E-08
eigenvalue    5 init= -20.19     fin= -20.19     change= 0.5487E-05
eigenvalue    6 init= -7.544     fin= -7.544     change= 0.3798E-04
eigenvalue    7 init= -7.087     fin= -7.087     change= 0.8824E-05
eigenvalue    8 init= -7.052     fin= -7.052     change= 0.4765E-05
 Checking convergence criteria
 Diagonalising expanded subspace
 Copying updated data back
eigenvalue    1 init= -83.96     fin= -83.96     change= 0.2237E-08
eigenvalue    2 init= -53.14     fin= -53.14     change= 0.5751E-10
eigenvalue    3 init= -53.14     fin= -53.14     change= 0.5059E-10
eigenvalue    4 init= -52.98     fin= -52.98     change= 0.2896E-08
eigenvalue    5 init= -20.19     fin= -20.19     change= 0.5771E-05
eigenvalue    6 init= -7.544     fin= -7.544     change= 0.4046E-04
eigenvalue    7 init= -7.087     fin= -7.087     change= 0.9514E-05
eigenvalue    8 init= -7.052     fin= -7.052     change= 0.5059E-05
 Checking convergence criteria
 Diagonalising expanded subspace
 Copying updated data back
eigenvalue    9 init= -5.643     fin= -5.643     change= 0.3790E-06
eigenvalue   10 init= -5.423     fin= -5.423     change= 0.6685E-06
eigenvalue   11 init= -4.438     fin= -4.438     change= 0.2217E-04
eigenvalue   12 init= -3.581     fin= -3.581     change= 0.1008E-04
eigenvalue   13 init= -3.430     fin= -3.430     change= 0.3894E-05
eigenvalue   14 init= -1.925     fin= -1.925     change= 0.2730E-04
eigenvalue   15 init= -.5933E-01 fin= -.5933E-01 change= 0.1225E-05
eigenvalue   16 init=  2.027     fin=  2.027     change= 0.4651E-05
 Checking convergence criteria
 Diagonalising expanded subspace
 Copying updated data back
eigenvalue    9 init= -5.643     fin= -5.643     change= 0.3900E-06
eigenvalue   10 init= -5.423     fin= -5.423     change= 0.6705E-06
eigenvalue   11 init= -4.438     fin= -4.438     change= 0.2476E-04
eigenvalue   12 init= -3.581     fin= -3.581     change= 0.1127E-04
eigenvalue   13 init= -3.430     fin= -3.430     change= 0.4183E-05
eigenvalue   14 init= -1.925     fin= -1.925     change= 0.3149E-04
eigenvalue   15 init= -.5933E-01 fin= -.5933E-01 change= 0.1556E-05
eigenvalue   16 init=  2.027     fin=  2.027     change= 0.6881E-05
 Checking convergence criteria
 Diagonalising expanded subspace
 Copying updated data back
eigenvalue    9 init= -5.643     fin= -5.643     change= 0.3926E-06
eigenvalue   10 init= -5.423     fin= -5.423     change= 0.6705E-06
eigenvalue   11 init= -4.438     fin= -4.438     change= 0.2497E-04
eigenvalue   12 init= -3.581     fin= -3.581     change= 0.1139E-04
eigenvalue   13 init= -3.430     fin= -3.430     change= 0.4184E-05
eigenvalue   14 init= -1.925     fin= -1.925     change= 0.3202E-04
eigenvalue   15 init= -.5933E-01 fin= -.5933E-01 change= 0.1638E-05
eigenvalue   16 init=  2.027     fin=  2.027     change= 0.8002E-05
 Checking convergence criteria
 Diagonalising expanded subspace
 Copying updated data back
eigenvalue   17 init=  2.484     fin=  2.484     change= 0.1522E-06
 Checking convergence criteria
 no. bands in each block=           8
Kinetic eigenvalue #   1 =     0.38348971E+02
Kinetic eigenvalue #   2 =     0.39990483E+02
Kinetic eigenvalue #   3 =     0.39990481E+02
Kinetic eigenvalue #   4 =     0.39595183E+02
Kinetic eigenvalue #   5 =     0.25112526E+02
Kinetic eigenvalue #   6 =     0.42186747E+02
Kinetic eigenvalue #   7 =     0.37391950E+02
Kinetic eigenvalue #   8 =     0.37412406E+02
Kinetic eigenvalue #   9 =     0.37900587E+02
Kinetic eigenvalue #  10 =     0.37455932E+02
Kinetic eigenvalue #  11 =     0.23372275E+02
Kinetic eigenvalue #  12 =     0.38336693E+02
Kinetic eigenvalue #  13 =     0.38452615E+02
Kinetic eigenvalue #  14 =     0.24719402E+02
Kinetic eigenvalue #  15 =     0.13655755E+02
Kinetic eigenvalue #  16 =     0.14273376E+02
Kinetic eigenvalue #  17 =     0.77276904E+01
 Calculating the R matrix for the precon Sinv operator
 Diagonalising expanded subspace
 Copying updated data back
eigenvalue    1 init= -83.96     fin= -83.96     change= 0.2157E-08
eigenvalue    2 init= -53.14     fin= -53.14     change= 0.6043E-10
eigenvalue    3 init= -53.14     fin= -53.14     change= 0.5423E-10
eigenvalue    4 init= -52.98     fin= -52.98     change= 0.3037E-08
eigenvalue    5 init= -20.19     fin= -20.19     change= 0.6132E-05
eigenvalue    6 init= -7.540     fin= -7.540     change= 0.4235E-04
eigenvalue    7 init= -7.083     fin= -7.083     change= 0.8263E-05
eigenvalue    8 init= -7.082     fin= -7.082     change= 0.8156E-05
 Checking convergence criteria
 Diagonalising expanded subspace
 Copying updated data back
eigenvalue    1 init= -83.96     fin= -83.96     change= 0.2171E-08
eigenvalue    2 init= -53.14     fin= -53.14     change= 0.6093E-10
eigenvalue    3 init= -53.14     fin= -53.14     change= 0.5452E-10
eigenvalue    4 init= -52.98     fin= -52.98     change= 0.3217E-08
eigenvalue    5 init= -20.19     fin= -20.19     change= 0.6460E-05
eigenvalue    6 init= -7.540     fin= -7.540     change= 0.4520E-04
eigenvalue    7 init= -7.083     fin= -7.083     change= 0.8927E-05
eigenvalue    8 init= -7.082     fin= -7.082     change= 0.8803E-05
 Checking convergence criteria
 Diagonalising expanded subspace
 Copying updated data back
eigenvalue    9 init= -5.611     fin= -5.611     change= 0.2130E-06
eigenvalue   10 init= -5.441     fin= -5.441     change= 0.1002E-05
eigenvalue   11 init= -4.178     fin= -4.178     change= 0.2785E-04
eigenvalue   12 init= -3.561     fin= -3.561     change= 0.7104E-05
eigenvalue   13 init= -3.533     fin= -3.533     change= 0.1208E-04
eigenvalue   14 init= -1.740     fin= -1.740     change= 0.2790E-04
eigenvalue   15 init= 0.3054     fin= 0.3054     change= 0.1051E-05
eigenvalue   16 init= 0.4360     fin= 0.4360     change= 0.5320E-06
 Checking convergence criteria
 Diagonalising expanded subspace
 Copying updated data back
eigenvalue    9 init= -5.611     fin= -5.611     change= 0.2135E-06
eigenvalue   10 init= -5.441     fin= -5.441     change= 0.1110E-05
eigenvalue   11 init= -4.178     fin= -4.178     change= 0.3056E-04
eigenvalue   12 init= -3.561     fin= -3.561     change= 0.7951E-05
eigenvalue   13 init= -3.533     fin= -3.533     change= 0.1339E-04
eigenvalue   14 init= -1.740     fin= -1.740     change= 0.3154E-04
eigenvalue   15 init= 0.3054     fin= 0.3054     change= 0.1483E-05
eigenvalue   16 init= 0.4360     fin= 0.4360     change= 0.6407E-06
 Checking convergence criteria
 Diagonalising expanded subspace
 Copying updated data back
eigenvalue   17 init=  2.642     fin=  2.642     change= 0.1853E-05
 Checking convergence criteria
 Diagonalising expanded subspace
 Copying updated data back
eigenvalue   17 init=  2.642     fin=  2.642     change= 0.3453E-05
 Checking convergence criteria
 Diagonalising expanded subspace
 Copying updated data back
eigenvalue   17 init=  2.642     fin=  2.642     change= 0.4829E-05
 Checking convergence criteria
 Diagonalising expanded subspace
 Copying updated data back
eigenvalue   17 init=  2.642     fin=  2.642     change= 0.5876E-05
 Checking convergence criteria
 Diagonalising expanded subspace
 Copying updated data back
eigenvalue   17 init=  2.642     fin=  2.642     change= 0.6487E-05
 Checking convergence criteria
 no. bands in each block=           8
Kinetic eigenvalue #   1 =     0.38348960E+02
Kinetic eigenvalue #   2 =     0.39990472E+02
Kinetic eigenvalue #   3 =     0.39990660E+02
Kinetic eigenvalue #   4 =     0.39595175E+02
Kinetic eigenvalue #   5 =     0.25099043E+02
Kinetic eigenvalue #   6 =     0.42122289E+02
Kinetic eigenvalue #   7 =     0.37333012E+02
Kinetic eigenvalue #   8 =     0.37797753E+02
Kinetic eigenvalue #   9 =     0.37459155E+02
Kinetic eigenvalue #  10 =     0.37726085E+02
Kinetic eigenvalue #  11 =     0.20289011E+02
Kinetic eigenvalue #  12 =     0.37545438E+02
Kinetic eigenvalue #  13 =     0.41168603E+02
Kinetic eigenvalue #  14 =     0.25571076E+02
Kinetic eigenvalue #  15 =     0.13556085E+02
Kinetic eigenvalue #  16 =     0.80522571E+01
Kinetic eigenvalue #  17 =     0.17118951E+02
 Calculating the R matrix for the precon Sinv operator
 Diagonalising expanded subspace
 Copying updated data back
eigenvalue    1 init= -83.96     fin= -83.96     change= 0.2193E-08
eigenvalue    2 init= -53.14     fin= -53.14     change= 0.5708E-10
eigenvalue    3 init= -53.14     fin= -53.14     change= 0.5078E-10
eigenvalue    4 init= -52.98     fin= -52.98     change= 0.2731E-08
eigenvalue    5 init= -20.19     fin= -20.19     change= 0.5485E-05
eigenvalue    6 init= -7.544     fin= -7.544     change= 0.3796E-04
eigenvalue    7 init= -7.087     fin= -7.087     change= 0.8824E-05
eigenvalue    8 init= -7.052     fin= -7.052     change= 0.4766E-05
 Checking convergence criteria
 Diagonalising expanded subspace
 Copying updated data back
eigenvalue    1 init= -83.96     fin= -83.96     change= 0.2210E-08
eigenvalue    2 init= -53.14     fin= -53.14     change= 0.5746E-10
eigenvalue    3 init= -53.14     fin= -53.14     change= 0.5090E-10
eigenvalue    4 init= -52.98     fin= -52.98     change= 0.2895E-08
eigenvalue    5 init= -20.19     fin= -20.19     change= 0.5771E-05
eigenvalue    6 init= -7.544     fin= -7.544     change= 0.4046E-04
eigenvalue    7 init= -7.087     fin= -7.087     change= 0.9513E-05
eigenvalue    8 init= -7.052     fin= -7.052     change= 0.5059E-05
 Checking convergence criteria
 Diagonalising expanded subspace
 Copying updated data back
eigenvalue    9 init= -5.643     fin= -5.643     change= 0.3789E-06
eigenvalue   10 init= -5.423     fin= -5.423     change= 0.6687E-06
eigenvalue   11 init= -4.438     fin= -4.438     change= 0.2217E-04
eigenvalue   12 init= -3.581     fin= -3.581     change= 0.1009E-04
eigenvalue   13 init= -3.430     fin= -3.430     change= 0.3894E-05
eigenvalue   14 init= -1.924     fin= -1.925     change= 0.2742E-04
eigenvalue   15 init= -.5933E-01 fin= -.5933E-01 change= 0.1175E-05
eigenvalue   16 init=  2.027     fin=  2.027     change= 0.4414E-05
 Checking convergence criteria
 Diagonalising expanded subspace
 Copying updated data back
eigenvalue    9 init= -5.643     fin= -5.643     change= 0.3897E-06
eigenvalue   10 init= -5.423     fin= -5.423     change= 0.6710E-06
eigenvalue   11 init= -4.438     fin= -4.438     change= 0.2453E-04
eigenvalue   12 init= -3.581     fin= -3.581     change= 0.1129E-04
eigenvalue   13 init= -3.430     fin= -3.430     change= 0.4194E-05
eigenvalue   14 init= -1.924     fin= -1.925     change= 0.3123E-04
eigenvalue   15 init= -.5933E-01 fin= -.5933E-01 change= 0.1470E-05
eigenvalue   16 init=  2.027     fin=  2.027     change= 0.6221E-05
 Checking convergence criteria
 Diagonalising expanded subspace
 Copying updated data back
eigenvalue    9 init= -5.643     fin= -5.643     change= 0.3916E-06
eigenvalue   10 init= -5.423     fin= -5.423     change= 0.6710E-06
eigenvalue   11 init= -4.438     fin= -4.438     change= 0.2491E-04
eigenvalue   12 init= -3.581     fin= -3.581     change= 0.1142E-04
eigenvalue   13 init= -3.430     fin= -3.430     change= 0.4200E-05
eigenvalue   14 init= -1.924     fin= -1.925     change= 0.3217E-04
eigenvalue   15 init= -.5933E-01 fin= -.5933E-01 change= 0.1538E-05
eigenvalue   16 init=  2.027     fin=  2.027     change= 0.7522E-05
 Checking convergence criteria
 Diagonalising expanded subspace
 Copying updated data back
eigenvalue   17 init=  2.484     fin=  2.484     change= 0.1367E-06
 Checking convergence criteria
 no. bands in each block=           8
Kinetic eigenvalue #   1 =     0.37872827E+02
Kinetic eigenvalue #   2 =     0.39259389E+02
Kinetic eigenvalue #   3 =     0.39828255E+02
Kinetic eigenvalue #   4 =     0.39828260E+02
Kinetic eigenvalue #   5 =     0.25186723E+02
Kinetic eigenvalue #   6 =     0.43805622E+02
Kinetic eigenvalue #   7 =     0.37875739E+02
Kinetic eigenvalue #   8 =     0.37953623E+02
Kinetic eigenvalue #   9 =     0.36819316E+02
Kinetic eigenvalue #  10 =     0.32265673E+02
Kinetic eigenvalue #  11 =     0.22439585E+02
Kinetic eigenvalue #  12 =     0.36089903E+02
Kinetic eigenvalue #  13 =     0.36345366E+02
Kinetic eigenvalue #  14 =     0.23975481E+02
Kinetic eigenvalue #  15 =     0.13730900E+02
Kinetic eigenvalue #  16 =     0.14861435E+02
Kinetic eigenvalue #  17 =     0.80852684E+01
 Calculating the R matrix for the precon Sinv operator
 Diagonalising expanded subspace
 Copying updated data back
eigenvalue    1 init= -80.00     fin= -80.00     change= 0.2326E-08
eigenvalue    2 init= -49.54     fin= -49.54     change= 0.8798E-08
eigenvalue    3 init= -49.09     fin= -49.09     change= 0.1147E-09
eigenvalue    4 init= -49.09     fin= -49.09     change= 0.8442E-10
eigenvalue    5 init= -19.73     fin= -19.73     change= 0.1063E-04
eigenvalue    6 init= -6.571     fin= -6.571     change= 0.4594E-04
eigenvalue    7 init= -5.781     fin= -5.781     change= 0.8070E-05
eigenvalue    8 init= -5.778     fin= -5.778     change= 0.4670E-05
 Checking convergence criteria
 Diagonalising expanded subspace
 Copying updated data back
eigenvalue    1 init= -80.00     fin= -80.00     change= 0.2413E-08
eigenvalue    2 init= -49.54     fin= -49.54     change= 0.9287E-08
eigenvalue    3 init= -49.09     fin= -49.09     change= 0.1155E-09
eigenvalue    4 init= -49.09     fin= -49.09     change= 0.8473E-10
eigenvalue    5 init= -19.73     fin= -19.73     change= 0.1116E-04
eigenvalue    6 init= -6.571     fin= -6.571     change= 0.4868E-04
eigenvalue    7 init= -5.781     fin= -5.781     change= 0.8781E-05
eigenvalue    8 init= -5.778     fin= -5.778     change= 0.4977E-05
 Checking convergence criteria
 Diagonalising expanded subspace
 Copying updated data back
eigenvalue    9 init= -1.916     fin= -1.916     change= 0.8613E-05
eigenvalue   10 init= -1.906     fin= -1.906     change= 0.6047E-04
eigenvalue   11 init= -1.775     fin= -1.775     change= 0.6087E-04
eigenvalue   12 init= -.9882     fin= -.9882     change= 0.1428E-04
eigenvalue   13 init= -.9614     fin= -.9615     change= 0.5243E-04
eigenvalue   14 init= -.1454     fin= -.1455     change= 0.9869E-04
eigenvalue   15 init=  1.625     fin=  1.625     change= 0.3403E-05
eigenvalue   16 init=  1.858     fin=  1.858     change= 0.1696E-05
 Checking convergence criteria
 Diagonalising expanded subspace
 Copying updated data back
eigenvalue    9 init= -1.916     fin= -1.916     change= 0.9067E-05
eigenvalue   10 init= -1.906     fin= -1.906     change= 0.6655E-04
eigenvalue   11 init= -1.775     fin= -1.775     change= 0.6688E-04
eigenvalue   12 init= -.9882     fin= -.9882     change= 0.1627E-04
eigenvalue   13 init= -.9614     fin= -.9615     change= 0.5878E-04
eigenvalue   14 init= -.1454     fin= -.1455     change= 0.1115E-03
eigenvalue   15 init=  1.625     fin=  1.625     change= 0.4667E-05
eigenvalue   16 init=  1.858     fin=  1.858     change= 0.2361E-05
 Checking convergence criteria
 Diagonalising expanded subspace
 Copying updated data back
eigenvalue    9 init= -1.916     fin= -1.916     change= 0.9067E-05
eigenvalue   10 init= -1.906     fin= -1.906     change= 0.6675E-04
eigenvalue   11 init= -1.775     fin= -1.775     change= 0.6718E-04
eigenvalue   12 init= -.9882     fin= -.9882     change= 0.1627E-04
eigenvalue   13 init= -.9614     fin= -.9615     change= 0.5928E-04
eigenvalue   14 init= -.1454     fin= -.1455     change= 0.1121E-03
eigenvalue   15 init=  1.625     fin=  1.625     change= 0.4957E-05
eigenvalue   16 init=  1.858     fin=  1.858     change= 0.2361E-05
 Checking convergence criteria
 Diagonalising expanded subspace
 Copying updated data back
eigenvalue   17 init=  3.137     fin=  3.137     change= 0.1092E-04
 Checking convergence criteria
 Diagonalising expanded subspace
 Copying updated data back
eigenvalue   17 init=  3.137     fin=  3.137     change= 0.1806E-04
 Checking convergence criteria
 Diagonalising expanded subspace
 Copying updated data back
eigenvalue   17 init=  3.137     fin=  3.137     change= 0.2179E-04
 Checking convergence criteria
 Diagonalising expanded subspace
 Copying updated data back
eigenvalue   17 init=  3.137     fin=  3.137     change= 0.2358E-04
 Checking convergence criteria
 no. bands in each block=           8
Kinetic eigenvalue #   1 =     0.37872752E+02
Kinetic eigenvalue #   2 =     0.39259377E+02
Kinetic eigenvalue #   3 =     0.39828243E+02
Kinetic eigenvalue #   4 =     0.39828505E+02
Kinetic eigenvalue #   5 =     0.25173050E+02
Kinetic eigenvalue #   6 =     0.43723010E+02
Kinetic eigenvalue #   7 =     0.37749840E+02
Kinetic eigenvalue #   8 =     0.38728885E+02
Kinetic eigenvalue #   9 =     0.19304159E+02
Kinetic eigenvalue #  10 =     0.31832881E+02
Kinetic eigenvalue #  11 =     0.36757792E+02
Kinetic eigenvalue #  12 =     0.34455454E+02
Kinetic eigenvalue #  13 =     0.39782238E+02
Kinetic eigenvalue #  14 =     0.24529100E+02
Kinetic eigenvalue #  15 =     0.14893019E+02
Kinetic eigenvalue #  16 =     0.89241411E+01
Kinetic eigenvalue #  17 =     0.16019077E+02
 Calculating the R matrix for the precon Sinv operator
 Diagonalising expanded subspace
 Copying updated data back
eigenvalue    1 init= -80.00     fin= -80.00     change= 0.2228E-08
eigenvalue    2 init= -49.54     fin= -49.54     change= 0.8823E-08
eigenvalue    3 init= -49.09     fin= -49.09     change= 0.1044E-09
eigenvalue    4 init= -49.09     fin= -49.09     change= 0.7823E-10
eigenvalue    5 init= -19.73     fin= -19.73     change= 0.1063E-04
eigenvalue    6 init= -6.575     fin= -6.575     change= 0.4621E-04
eigenvalue    7 init= -5.788     fin= -5.788     change= 0.5962E-05
eigenvalue    8 init= -5.722     fin= -5.722     change= 0.3674E-05
 Checking convergence criteria
 Diagonalising expanded subspace
 Copying updated data back
eigenvalue    1 init= -80.00     fin= -80.00     change= 0.2306E-08
eigenvalue    2 init= -49.54     fin= -49.54     change= 0.9325E-08
eigenvalue    3 init= -49.09     fin= -49.09     change= 0.1048E-09
eigenvalue    4 init= -49.09     fin= -49.09     change= 0.7842E-10
eigenvalue    5 init= -19.73     fin= -19.73     change= 0.1123E-04
eigenvalue    6 init= -6.575     fin= -6.575     change= 0.4994E-04
eigenvalue    7 init= -5.788     fin= -5.788     change= 0.6329E-05
eigenvalue    8 init= -5.722     fin= -5.722     change= 0.3845E-05
 Checking convergence criteria
 Diagonalising expanded subspace
 Copying updated data back
eigenvalue    9 init= -2.347     fin= -2.347     change= 0.6266E-04
eigenvalue   10 init= -1.931     fin= -1.931     change= 0.2439E-04
eigenvalue   11 init= -1.733     fin= -1.733     change= 0.2342E-04
eigenvalue   12 init= -1.035     fin= -1.035     change= 0.3394E-04
eigenvalue   13 init= -.8343     fin= -.8344     change= 0.1128E-04
eigenvalue   14 init= -.3319     fin= -.3321     change= 0.1196E-03
eigenvalue   15 init=  1.239     fin=  1.239     change= 0.3532E-05
eigenvalue   16 init=  2.545     fin=  2.545     change= 0.2902E-04
 Checking convergence criteria
 Diagonalising expanded subspace
 Copying updated data back
eigenvalue    9 init= -2.347     fin= -2.347     change= 0.6944E-04
eigenvalue   10 init= -1.931     fin= -1.931     change= 0.2625E-04
eigenvalue   11 init= -1.733     fin= -1.733     change= 0.2471E-04
eigenvalue   12 init= -1.035     fin= -1.035     change= 0.3857E-04
eigenvalue   13 init= -.8343     fin= -.8344     change= 0.1216E-04
eigenvalue   14 init= -.3319     fin= -.3321     change= 0.1382E-03
eigenvalue   15 init=  1.239     fin=  1.239     change= 0.4460E-05
eigenvalue   16 init=  2.545     fin=  2.545     change= 0.4107E-04
 Checking convergence criteria
 Diagonalising expanded subspace
 Copying updated data back
eigenvalue    9 init= -2.347     fin= -2.347     change= 0.6965E-04
eigenvalue   10 init= -1.931     fin= -1.931     change= 0.2625E-04
eigenvalue   11 init= -1.733     fin= -1.733     change= 0.2471E-04
eigenvalue   12 init= -1.035     fin= -1.035     change= 0.3886E-04
eigenvalue   13 init= -.8343     fin= -.8344     change= 0.1220E-04
eigenvalue   14 init= -.3319     fin= -.3321     change= 0.1393E-03
eigenvalue   15 init=  1.239     fin=  1.239     change= 0.4546E-05
eigenvalue   16 init=  2.545     fin=  2.545     change= 0.4359E-04
 Checking convergence criteria
 Diagonalising expanded subspace
 Copying updated data back
eigenvalue   17 init=  4.244     fin=  4.244     change= 0.4847E-06
 Checking convergence criteria
 no. bands in each block=           8
Kinetic eigenvalue #   1 =     0.37872751E+02
Kinetic eigenvalue #   2 =     0.39259377E+02
Kinetic eigenvalue #   3 =     0.39828243E+02
Kinetic eigenvalue #   4 =     0.39828505E+02
Kinetic eigenvalue #   5 =     0.25173050E+02
Kinetic eigenvalue #   6 =     0.43723008E+02
Kinetic eigenvalue #   7 =     0.37749840E+02
Kinetic eigenvalue #   8 =     0.38728884E+02
Kinetic eigenvalue #   9 =     0.19304442E+02
Kinetic eigenvalue #  10 =     0.31832881E+02
Kinetic eigenvalue #  11 =     0.36757791E+02
Kinetic eigenvalue #  12 =     0.34455446E+02
Kinetic eigenvalue #  13 =     0.39782223E+02
Kinetic eigenvalue #  14 =     0.24529668E+02
Kinetic eigenvalue #  15 =     0.14893033E+02
Kinetic eigenvalue #  16 =     0.89240129E+01
Kinetic eigenvalue #  17 =     0.16026346E+02
 Calculating the R matrix for the precon Sinv operator
 Diagonalising expanded subspace
 Copying updated data back
eigenvalue    1 init= -80.00     fin= -80.00     change= 0.2228E-08
eigenvalue    2 init= -49.54     fin= -49.54     change= 0.8825E-08
eigenvalue    3 init= -49.09     fin= -49.09     change= 0.1045E-09
eigenvalue    4 init= -49.09     fin= -49.09     change= 0.7797E-10
eigenvalue    5 init= -19.73     fin= -19.73     change= 0.1063E-04
eigenvalue    6 init= -6.575     fin= -6.575     change= 0.4622E-04
eigenvalue    7 init= -5.788     fin= -5.788     change= 0.5964E-05
eigenvalue    8 init= -5.722     fin= -5.722     change= 0.3650E-05
 Checking convergence criteria
 Diagonalising expanded subspace
 Copying updated data back
eigenvalue    1 init= -80.00     fin= -80.00     change= 0.2305E-08
eigenvalue    2 init= -49.54     fin= -49.54     change= 0.9326E-08
eigenvalue    3 init= -49.09     fin= -49.09     change= 0.1049E-09
eigenvalue    4 init= -49.09     fin= -49.09     change= 0.7816E-10
eigenvalue    5 init= -19.73     fin= -19.73     change= 0.1123E-04
eigenvalue    6 init= -6.575     fin= -6.575     change= 0.4997E-04
eigenvalue    7 init= -5.788     fin= -5.788     change= 0.6331E-05
eigenvalue    8 init= -5.722     fin= -5.722     change= 0.3817E-05
 Checking convergence criteria
 Diagonalising expanded subspace
 Copying updated data back
eigenvalue    9 init= -2.347     fin= -2.347     change= 0.6232E-04
eigenvalue   10 init= -1.931     fin= -1.931     change= 0.2443E-04
eigenvalue   11 init= -1.733     fin= -1.733     change= 0.2341E-04
eigenvalue   12 init= -1.035     fin= -1.035     change= 0.3381E-04
eigenvalue   13 init= -.8343     fin= -.8344     change= 0.1117E-04
eigenvalue   14 init= -.3319     fin= -.3321     change= 0.1207E-03
eigenvalue   15 init=  1.239     fin=  1.239     change= 0.3449E-05
eigenvalue   16 init=  2.545     fin=  2.545     change= 0.2885E-04
 Checking convergence criteria
 Diagonalising expanded subspace
 Copying updated data back
eigenvalue    9 init= -2.347     fin= -2.347     change= 0.6902E-04
eigenvalue   10 init= -1.931     fin= -1.931     change= 0.2624E-04
eigenvalue   11 init= -1.733     fin= -1.733     change= 0.2470E-04
eigenvalue   12 init= -1.035     fin= -1.035     change= 0.3839E-04
eigenvalue   13 init= -.8343     fin= -.8344     change= 0.1205E-04
eigenvalue   14 init= -.3319     fin= -.3321     change= 0.1392E-03
eigenvalue   15 init=  1.239     fin=  1.239     change= 0.4332E-05
eigenvalue   16 init=  2.545     fin=  2.545     change= 0.4013E-04
 Checking convergence criteria
 Diagonalising expanded subspace
 Copying updated data back
eigenvalue    9 init= -2.347     fin= -2.347     change= 0.6922E-04
eigenvalue   10 init= -1.931     fin= -1.931     change= 0.2624E-04
eigenvalue   11 init= -1.733     fin= -1.733     change= 0.2470E-04
eigenvalue   12 init= -1.035     fin= -1.035     change= 0.3881E-04
eigenvalue   13 init= -.8343     fin= -.8344     change= 0.1207E-04
eigenvalue   14 init= -.3319     fin= -.3321     change= 0.1404E-03
eigenvalue   15 init=  1.239     fin=  1.239     change= 0.4448E-05
eigenvalue   16 init=  2.545     fin=  2.545     change= 0.4298E-04
 Checking convergence criteria
 Diagonalising expanded subspace
 Copying updated data back
eigenvalue   17 init=  4.244     fin=  4.244     change= 0.3905E-06
 Checking convergence criteria
 no. bands in each block=           8
Kinetic eigenvalue #   1 =     0.37872810E+02
Kinetic eigenvalue #   2 =     0.39259389E+02
Kinetic eigenvalue #   3 =     0.39828255E+02
Kinetic eigenvalue #   4 =     0.39828260E+02
Kinetic eigenvalue #   5 =     0.25186721E+02
Kinetic eigenvalue #   6 =     0.43805574E+02
Kinetic eigenvalue #   7 =     0.37875726E+02
Kinetic eigenvalue #   8 =     0.37953623E+02
Kinetic eigenvalue #   9 =     0.36819317E+02
Kinetic eigenvalue #  10 =     0.32265597E+02
Kinetic eigenvalue #  11 =     0.22439552E+02
Kinetic eigenvalue #  12 =     0.36089907E+02
Kinetic eigenvalue #  13 =     0.36345377E+02
Kinetic eigenvalue #  14 =     0.23975518E+02
Kinetic eigenvalue #  15 =     0.13729851E+02
Kinetic eigenvalue #  16 =     0.14861414E+02
Kinetic eigenvalue #  17 =     0.80823873E+01
 Calculating the R matrix for the precon Sinv operator
 Diagonalising expanded subspace
 Copying updated data back
eigenvalue    1 init= -80.00     fin= -80.00     change= 0.2376E-08
eigenvalue    2 init= -49.54     fin= -49.54     change= 0.8799E-08
eigenvalue    3 init= -49.09     fin= -49.09     change= 0.1145E-09
eigenvalue    4 init= -49.09     fin= -49.09     change= 0.8428E-10
eigenvalue    5 init= -19.73     fin= -19.73     change= 0.1060E-04
eigenvalue    6 init= -6.571     fin= -6.571     change= 0.4570E-04
eigenvalue    7 init= -5.781     fin= -5.781     change= 0.8102E-05
eigenvalue    8 init= -5.778     fin= -5.778     change= 0.4670E-05
 Checking convergence criteria
 Diagonalising expanded subspace
 Copying updated data back
eigenvalue    1 init= -80.00     fin= -80.00     change= 0.2472E-08
eigenvalue    2 init= -49.54     fin= -49.54     change= 0.9306E-08
eigenvalue    3 init= -49.09     fin= -49.09     change= 0.1154E-09
eigenvalue    4 init= -49.09     fin= -49.09     change= 0.8457E-10
eigenvalue    5 init= -19.73     fin= -19.73     change= 0.1115E-04
eigenvalue    6 init= -6.571     fin= -6.571     change= 0.4861E-04
eigenvalue    7 init= -5.781     fin= -5.781     change= 0.8831E-05
eigenvalue    8 init= -5.778     fin= -5.778     change= 0.4977E-05
 Checking convergence criteria
 Diagonalising expanded subspace
 Copying updated data back
eigenvalue    9 init= -1.916     fin= -1.916     change= 0.8613E-05
eigenvalue   10 init= -1.906     fin= -1.906     change= 0.6052E-04
eigenvalue   11 init= -1.775     fin= -1.775     change= 0.6107E-04
eigenvalue   12 init= -.9882     fin= -.9882     change= 0.1428E-04
eigenvalue   13 init= -.9614     fin= -.9615     change= 0.5248E-04
eigenvalue   14 init= -.1454     fin= -.1455     change= 0.9934E-04
eigenvalue   15 init=  1.625     fin=  1.625     change= 0.3084E-05
eigenvalue   16 init=  1.858     fin=  1.858     change= 0.1690E-05
 Checking convergence criteria
 Diagonalising expanded subspace
 Copying updated data back
eigenvalue    9 init= -1.916     fin= -1.916     change= 0.9068E-05
eigenvalue   10 init= -1.906     fin= -1.906     change= 0.6647E-04
eigenvalue   11 init= -1.775     fin= -1.775     change= 0.6673E-04
eigenvalue   12 init= -.9882     fin= -.9882     change= 0.1628E-04
eigenvalue   13 init= -.9614     fin= -.9615     change= 0.5883E-04
eigenvalue   14 init= -.1454     fin= -.1455     change= 0.1115E-03
eigenvalue   15 init=  1.625     fin=  1.625     change= 0.4065E-05
eigenvalue   16 init=  1.858     fin=  1.858     change= 0.2352E-05
 Checking convergence criteria
 Diagonalising expanded subspace
 Copying updated data back
eigenvalue   17 init=  3.137     fin=  3.137     change= 0.8710E-05
 Checking convergence criteria
 Diagonalising expanded subspace
 Copying updated data back
eigenvalue   17 init=  3.137     fin=  3.137     change= 0.1689E-04
 Checking convergence criteria
 Diagonalising expanded subspace
 Copying updated data back
eigenvalue   17 init=  3.137     fin=  3.137     change= 0.2011E-04
 Checking convergence criteria
 Diagonalising expanded subspace
 Copying updated data back
eigenvalue   17 init=  3.137     fin=  3.137     change= 0.2144E-04
 Checking convergence criteria
 no. bands in each block=           8
Kinetic eigenvalue #   1 =     0.37872752E+02
Kinetic eigenvalue #   2 =     0.39259377E+02
Kinetic eigenvalue #   3 =     0.39828243E+02
Kinetic eigenvalue #   4 =     0.39828505E+02
Kinetic eigenvalue #   5 =     0.25173050E+02
Kinetic eigenvalue #   6 =     0.43723007E+02
Kinetic eigenvalue #   7 =     0.37749840E+02
Kinetic eigenvalue #   8 =     0.38728886E+02
Kinetic eigenvalue #   9 =     0.19304417E+02
Kinetic eigenvalue #  10 =     0.31832909E+02
Kinetic eigenvalue #  11 =     0.36757792E+02
Kinetic eigenvalue #  12 =     0.34455431E+02
Kinetic eigenvalue #  13 =     0.39782232E+02
Kinetic eigenvalue #  14 =     0.24529650E+02
Kinetic eigenvalue #  15 =     0.14893062E+02
Kinetic eigenvalue #  16 =     0.89240042E+01
Kinetic eigenvalue #  17 =     0.16012492E+02
 Calculating the R matrix for the precon Sinv operator
 Diagonalising expanded subspace
 Copying updated data back
eigenvalue    1 init= -80.00     fin= -80.00     change= 0.2227E-08
eigenvalue    2 init= -49.54     fin= -49.54     change= 0.8822E-08
eigenvalue    3 init= -49.09     fin= -49.09     change= 0.1044E-09
eigenvalue    4 init= -49.09     fin= -49.09     change= 0.7847E-10
eigenvalue    5 init= -19.73     fin= -19.73     change= 0.1062E-04
eigenvalue    6 init= -6.575     fin= -6.575     change= 0.4620E-04
eigenvalue    7 init= -5.788     fin= -5.788     change= 0.5961E-05
eigenvalue    8 init= -5.722     fin= -5.722     change= 0.3692E-05
 Checking convergence criteria
 Diagonalising expanded subspace
 Copying updated data back
eigenvalue    1 init= -80.00     fin= -80.00     change= 0.2304E-08
eigenvalue    2 init= -49.54     fin= -49.54     change= 0.9323E-08
eigenvalue    3 init= -49.09     fin= -49.09     change= 0.1047E-09
eigenvalue    4 init= -49.09     fin= -49.09     change= 0.7868E-10
eigenvalue    5 init= -19.73     fin= -19.73     change= 0.1123E-04
eigenvalue    6 init= -6.575     fin= -6.575     change= 0.4993E-04
eigenvalue    7 init= -5.788     fin= -5.788     change= 0.6328E-05
eigenvalue    8 init= -5.722     fin= -5.722     change= 0.3865E-05
 Checking convergence criteria
 Diagonalising expanded subspace
 Copying updated data back
eigenvalue    9 init= -2.347     fin= -2.347     change= 0.6217E-04
eigenvalue   10 init= -1.931     fin= -1.931     change= 0.2442E-04
eigenvalue   11 init= -1.733     fin= -1.733     change= 0.2342E-04
eigenvalue   12 init= -1.035     fin= -1.035     change= 0.3371E-04
eigenvalue   13 init= -.8343     fin= -.8344     change= 0.1133E-04
eigenvalue   14 init= -.3319     fin= -.3321     change= 0.1203E-03
eigenvalue   15 init=  1.239     fin=  1.239     change= 0.3451E-05
eigenvalue   16 init=  2.545     fin=  2.545     change= 0.2862E-04
 Checking convergence criteria
 Diagonalising expanded subspace
 Copying updated data back
eigenvalue    9 init= -2.347     fin= -2.347     change= 0.6899E-04
eigenvalue   10 init= -1.931     fin= -1.931     change= 0.2623E-04
eigenvalue   11 init= -1.733     fin= -1.733     change= 0.2472E-04
eigenvalue   12 init= -1.035     fin= -1.035     change= 0.3837E-04
eigenvalue   13 init= -.8343     fin= -.8344     change= 0.1226E-04
eigenvalue   14 init= -.3319     fin= -.3321     change= 0.1390E-03
eigenvalue   15 init=  1.239     fin=  1.239     change= 0.4364E-05
eigenvalue   16 init=  2.545     fin=  2.545     change= 0.4006E-04
 Checking convergence criteria
 Diagonalising expanded subspace
 Copying updated data back
eigenvalue    9 init= -2.347     fin= -2.347     change= 0.6920E-04
eigenvalue   10 init= -1.931     fin= -1.931     change= 0.2623E-04
eigenvalue   11 init= -1.733     fin= -1.733     change= 0.2472E-04
eigenvalue   12 init= -1.035     fin= -1.035     change= 0.3879E-04
eigenvalue   13 init= -.8343     fin= -.8344     change= 0.1229E-04
eigenvalue   14 init= -.3319     fin= -.3321     change= 0.1403E-03
eigenvalue   15 init=  1.239     fin=  1.239     change= 0.4478E-05
eigenvalue   16 init=  2.545     fin=  2.545     change= 0.4297E-04
 Checking convergence criteria
 Diagonalising expanded subspace
 Copying updated data back
eigenvalue   17 init=  4.244     fin=  4.244     change= 0.5300E-06
 Checking convergence criteria
(Entering electronic_find_fermi_fix)
Smearing occupancies with Gaussians
Spin: 1, Min eigenvalue: -8.4755E+001 eV, Max eigenvalue:  3.4423E+000 eV
Fermi energy for up electrons = -3.0282E+000 eV [lower bound; range =  1.96E-014 eV]
Spin: 2, Min eigenvalue: -8.0796E+001 eV, Max eigenvalue:  5.0437E+000 eV
Fermi energy for down electrons = -3.0728E+000 eV [lower bound; range =  1.91E-014 eV]
(Leaving electronic_find_fermi_fix)
NB material has an apparent band gap of  1.3317E+000eV for spin up electrons.
NB material has an apparent band gap of  3.3752E+000eV for spin down electrons.
Calculating KE and non-local eigenvalues to find total energy
 
End of SCF cycle energies
Exchange-correlation energy      =      -499.07913191541501874 eV
+Hartree energy                  =      2055.86480228865912068 eV
+Local pseudopotential energy    =     -5072.04198973965321784 eV
----------------------------------
Potential energy (total)         =     -3513.14647765109157262 eV
                                  
+Hubbard U energy                =         1.43999999999999995 eV
+Kinetic energy                  =       776.62198635468951124 eV
+Non-local energy                =       150.13349036869493602 eV
+Electronic entropy term (-TS)   =        -0.00123531035379705 eV
+Ewald energy (const)            =      -774.85607651874397561 eV
+non-Coulombic energy (const)    =        13.80612138473854067 eV
----------------------------------
Total free energy (E-TS)         =     -3346.00219137206613595 eV
 
NB est. 0K energy (E-0.5TS)      =     -3346.00157371688965213 eV
 
(XC correction to eigenvalue sum =        44.01690523340165129 eV)
(Hubbard U correction to eigenvalu         0.00000003000000000 eV)
 
      1  -3.34600219E+003 -3.04519355E+000   3.82855506E-002      15.91  <-- SCF
 Calculate new overlap and Hubbard U matrix
 Density matrix in cubic harmonics:
     1.0000     0.0000     0.0000     0.0000     0.0000
     0.0000     0.0000     0.0000     0.0000     0.0000
     0.0000     0.0000     0.0000     0.0000     0.0000
     0.0000     0.0000     0.0000     0.0000     0.0000
     0.0000     0.0000     0.0000     0.0000     0.0000
     0.0000     0.0000     0.0000     0.0000     0.0000
     0.0000     0.0000     0.0000     1.0000     0.0000
     0.0000     0.0000     0.0000     0.0000     0.0000
     0.0000     0.0000     0.0000     0.0000     1.0000
     0.0000     0.0000     0.0000     0.0000     0.0000
 Hermiticity:        (-4.44089209850062616E-016,0.0000000000000000)
 Density matrix in cubic harmonics:
     1.0000     0.0000     0.0000     0.0000     0.0000
     0.0000     0.0000     0.0000     0.0000     0.0000
     0.0000     0.0000     0.0000     0.0000     0.0000
     0.0000     0.0000     0.0000     0.0000     0.0000
     0.0000     0.0000     0.0000     0.0000     0.0000
     0.0000     0.0000     0.0000     0.0000     0.0000
     0.0000     0.0000     0.0000     1.0000     0.0000
     0.0000     0.0000     0.0000     0.0000     0.0000
     0.0000     0.0000     0.0000     0.0000     1.0000
     0.0000     0.0000     0.0000     0.0000     0.0000
 Hermiticity:        (-4.44089209850062616E-016,0.0000000000000000)
 Density matrix in cubic harmonics:
     0.9405     0.0000    -0.0000     0.1028    -0.0000
     0.0000     0.0000     0.0000     0.0000     0.0000
     0.0000     0.9997    -0.0000    -0.0000    -0.0000
     0.0000     0.0000     0.0000     0.0000     0.0000
    -0.0000    -0.0000     0.9773     0.0000    -0.0000
     0.0000     0.0000     0.0000     0.0000     0.0000
     0.1028    -0.0000     0.0000     0.8218     0.0000
     0.0000     0.0000     0.0000     0.0000     0.0000
    -0.0000    -0.0000    -0.0000     0.0000     0.9773
     0.0000     0.0000     0.0000     0.0000     0.0000
 Hermiticity:              (0.22607726237075088,0.0000000000000000)
 Density matrix in cubic harmonics:
     0.0830     0.0000     0.0000    -0.1436    -0.0000
     0.0000     0.0000     0.0000     0.0000     0.0000
     0.0000     0.0000    -0.0000    -0.0000     0.0000
     0.0000     0.0000     0.0000     0.0000     0.0000
     0.0000    -0.0000     0.2976     0.0000     0.0000
     0.0000     0.0000     0.0000     0.0000     0.0000
    -0.1436    -0.0000     0.0000     0.2489     0.0000
     0.0000     0.0000     0.0000     0.0000     0.0000
    -0.0000     0.0000     0.0000     0.0000     0.2976
     0.0000     0.0000     0.0000     0.0000     0.0000
 Hermiticity:              (0.63986667132483843,0.0000000000000000)
  Hubbard energy diff=  -8.5542092746373949E-002 eV <-- Hubbard_U
  ----------- Hubbard U: New occupation matrix calculated: --------------------
   1.3544579072536260      eV <= Edirect

     Hubbard U occupation numbers
     ----------------------------
Species   Ion   l  spin               occupancies
==================================================================
  Mn       1    2   up:   0.76  0.98  0.98  1.00  1.00
                    dn:   0.00  0.00  0.30  0.30  0.33
==================================================================

 Only the high frequencies of the density were mixed in this cycle 
Symmetrising density
Calculating local potential
Calculating Hubbard U potential
 Density matrix in cubic harmonics:
     1.0000     0.0000     0.0000     0.0000     0.0000
     0.0000     0.0000     0.0000     0.0000     0.0000
     0.0000     0.0000     0.0000     0.0000     0.0000
     0.0000     0.0000     0.0000     0.0000     0.0000
     0.0000     0.0000     0.0000     0.0000     0.0000
     0.0000     0.0000     0.0000     0.0000     0.0000
     0.0000     0.0000     0.0000     1.0000     0.0000
     0.0000     0.0000     0.0000     0.0000     0.0000
     0.0000     0.0000     0.0000     0.0000     1.0000
     0.0000     0.0000     0.0000     0.0000     0.0000
 Hermiticity:        (-4.44089209850062616E-016,0.0000000000000000)
 Density matrix in cubic harmonics:
     1.0000     0.0000     0.0000     0.0000     0.0000
     0.0000     0.0000     0.0000     0.0000     0.0000
     0.0000     0.0000     0.0000     0.0000     0.0000
     0.0000     0.0000     0.0000     0.0000     0.0000
     0.0000     0.0000     0.0000     0.0000     0.0000
     0.0000     0.0000     0.0000     0.0000     0.0000
     0.0000     0.0000     0.0000     1.0000     0.0000
     0.0000     0.0000     0.0000     0.0000     0.0000
     0.0000     0.0000     0.0000     0.0000     1.0000
     0.0000     0.0000     0.0000     0.0000     0.0000
 Hermiticity:        (-4.44089209850062616E-016,0.0000000000000000)
Calculating non-local weights
Starting SCF cycle     2 of up to    30
 no. bands in each block=           8
Kinetic eigenvalue #   1 =     0.38349112E+02
Kinetic eigenvalue #   2 =     0.39990488E+02
Kinetic eigenvalue #   3 =     0.39990493E+02
Kinetic eigenvalue #   4 =     0.39595282E+02
Kinetic eigenvalue #   5 =     0.25089043E+02
Kinetic eigenvalue #   6 =     0.42369969E+02
Kinetic eigenvalue #   7 =     0.37487983E+02
Kinetic eigenvalue #   8 =     0.37513026E+02
Kinetic eigenvalue #   9 =     0.37897983E+02
Kinetic eigenvalue #  10 =     0.37449339E+02
Kinetic eigenvalue #  11 =     0.22784413E+02
Kinetic eigenvalue #  12 =     0.38121263E+02
Kinetic eigenvalue #  13 =     0.38254205E+02
Kinetic eigenvalue #  14 =     0.25056003E+02
Kinetic eigenvalue #  15 =     0.13756930E+02
Kinetic eigenvalue #  16 =     0.14388722E+02
Kinetic eigenvalue #  17 =     0.77450362E+01
 Diagonalising expanded subspace
 Copying updated data back
eigenvalue    1 init= -83.96     fin= -83.96     change= 0.1355E-08
eigenvalue    2 init= -53.14     fin= -53.14     change= 0.1453E-10
eigenvalue    3 init= -53.14     fin= -53.14     change= 0.1364E-10
eigenvalue    4 init= -52.98     fin= -52.98     change= 0.2763E-10
eigenvalue    5 init= -20.19     fin= -20.19     change= 0.2975E-07
eigenvalue    6 init= -7.540     fin= -7.540     change= 0.3488E-06
eigenvalue    7 init= -7.083     fin= -7.083     change= 0.9811E-07
eigenvalue    8 init= -7.082     fin= -7.082     change= 0.1168E-06
 Checking convergence criteria
 Diagonalising expanded subspace
 Copying updated data back
eigenvalue    9 init= -5.611     fin= -5.611     change= 0.1009E-07
eigenvalue   10 init= -5.441     fin= -5.441     change= 0.7986E-08
eigenvalue   11 init= -4.178     fin= -4.178     change= 0.4055E-06
eigenvalue   12 init= -3.561     fin= -3.561     change= 0.6014E-07
eigenvalue   13 init= -3.533     fin= -3.533     change= 0.1508E-06
eigenvalue   14 init= -1.740     fin= -1.740     change= 0.6634E-06
eigenvalue   15 init= 0.3054     fin= 0.3054     change= 0.1041E-06
eigenvalue   16 init= 0.4360     fin= 0.4360     change= 0.2479E-07
 Checking convergence criteria
 Diagonalising expanded subspace
 Copying updated data back
eigenvalue   17 init=  2.642     fin=  2.642     change= 0.2777E-06
 Checking convergence criteria
 no. bands in each block=           8
Kinetic eigenvalue #   1 =     0.38349090E+02
Kinetic eigenvalue #   2 =     0.39990480E+02
Kinetic eigenvalue #   3 =     0.39990668E+02
Kinetic eigenvalue #   4 =     0.39595273E+02
Kinetic eigenvalue #   5 =     0.25075046E+02
Kinetic eigenvalue #   6 =     0.42309167E+02
Kinetic eigenvalue #   7 =     0.37424513E+02
Kinetic eigenvalue #   8 =     0.37925375E+02
Kinetic eigenvalue #   9 =     0.37428556E+02
Kinetic eigenvalue #  10 =     0.37723935E+02
Kinetic eigenvalue #  11 =     0.19744501E+02
Kinetic eigenvalue #  12 =     0.37306667E+02
Kinetic eigenvalue #  13 =     0.41000921E+02
Kinetic eigenvalue #  14 =     0.25868785E+02
Kinetic eigenvalue #  15 =     0.13697389E+02
Kinetic eigenvalue #  16 =     0.81033603E+01
Kinetic eigenvalue #  17 =     0.17160993E+02
 Diagonalising expanded subspace
 Copying updated data back
eigenvalue    1 init= -83.96     fin= -83.96     change= 0.1425E-08
eigenvalue    2 init= -53.14     fin= -53.14     change= 0.1399E-10
eigenvalue    3 init= -53.14     fin= -53.14     change= 0.1400E-10
eigenvalue    4 init= -52.98     fin= -52.98     change= 0.2259E-10
eigenvalue    5 init= -20.19     fin= -20.19     change= 0.2267E-07
eigenvalue    6 init= -7.544     fin= -7.544     change= 0.2648E-06
eigenvalue    7 init= -7.087     fin= -7.087     change= 0.9429E-07
eigenvalue    8 init= -7.052     fin= -7.052     change= 0.4133E-07
 Checking convergence criteria
 Diagonalising expanded subspace
 Copying updated data back
eigenvalue    9 init= -5.643     fin= -5.643     change= 0.2273E-07
eigenvalue   10 init= -5.423     fin= -5.423     change= 0.5127E-07
eigenvalue   11 init= -4.438     fin= -4.438     change= 0.1470E-06
eigenvalue   12 init= -3.581     fin= -3.581     change= 0.7036E-07
eigenvalue   13 init= -3.430     fin= -3.430     change= 0.4021E-07
eigenvalue   14 init= -1.925     fin= -1.925     change= 0.2753E-06
eigenvalue   15 init= -.5933E-01 fin= -.5933E-01 change= 0.3813E-07
eigenvalue   16 init=  2.027     fin=  2.027     change= 0.3665E-06
 Checking convergence criteria
 Diagonalising expanded subspace
 Copying updated data back
eigenvalue   17 init=  2.484     fin=  2.484     change= 0.4398E-07
 Checking convergence criteria
 no. bands in each block=           8
Kinetic eigenvalue #   1 =     0.38349100E+02
Kinetic eigenvalue #   2 =     0.39990480E+02
Kinetic eigenvalue #   3 =     0.39990668E+02
Kinetic eigenvalue #   4 =     0.39595273E+02
Kinetic eigenvalue #   5 =     0.25075038E+02
Kinetic eigenvalue #   6 =     0.42309108E+02
Kinetic eigenvalue #   7 =     0.37424493E+02
Kinetic eigenvalue #   8 =     0.37925363E+02
Kinetic eigenvalue #   9 =     0.37428548E+02
Kinetic eigenvalue #  10 =     0.37723937E+02
Kinetic eigenvalue #  11 =     0.19744507E+02
Kinetic eigenvalue #  12 =     0.37306735E+02
Kinetic eigenvalue #  13 =     0.41000965E+02
Kinetic eigenvalue #  14 =     0.25868841E+02
Kinetic eigenvalue #  15 =     0.13697397E+02
Kinetic eigenvalue #  16 =     0.81030942E+01
Kinetic eigenvalue #  17 =     0.17160767E+02
 Diagonalising expanded subspace
 Copying updated data back
eigenvalue    1 init= -83.96     fin= -83.96     change= 0.1355E-08
eigenvalue    2 init= -53.14     fin= -53.14     change= 0.1393E-10
eigenvalue    3 init= -53.14     fin= -53.14     change= 0.1398E-10
eigenvalue    4 init= -52.98     fin= -52.98     change= 0.2172E-10
eigenvalue    5 init= -20.19     fin= -20.19     change= 0.2185E-07
eigenvalue    6 init= -7.544     fin= -7.544     change= 0.2487E-06
eigenvalue    7 init= -7.087     fin= -7.087     change= 0.9584E-07
eigenvalue    8 init= -7.052     fin= -7.052     change= 0.4250E-07
 Checking convergence criteria
 Diagonalising expanded subspace
 Copying updated data back
eigenvalue    9 init= -5.643     fin= -5.643     change= 0.2265E-07
eigenvalue   10 init= -5.423     fin= -5.423     change= 0.5136E-07
eigenvalue   11 init= -4.438     fin= -4.438     change= 0.1651E-06
eigenvalue   12 init= -3.581     fin= -3.581     change= 0.6613E-07
eigenvalue   13 init= -3.430     fin= -3.430     change= 0.4705E-07
eigenvalue   14 init= -1.925     fin= -1.925     change= 0.2979E-06
eigenvalue   15 init= -.5933E-01 fin= -.5933E-01 change= 0.3242E-07
eigenvalue   16 init=  2.027     fin=  2.027     change= 0.3130E-06
 Checking convergence criteria
 Diagonalising expanded subspace
 Copying updated data back
eigenvalue   17 init=  2.484     fin=  2.484     change= 0.8480E-07
 Checking convergence criteria
 no. bands in each block=           8
Kinetic eigenvalue #   1 =     0.38349116E+02
Kinetic eigenvalue #   2 =     0.39990488E+02
Kinetic eigenvalue #   3 =     0.39990493E+02
[...]
Spin 1, kpoint ( 0.250000 -0.333333  0.333333 ) weight = 0.111111
+--------+-------------------+----------------+
|  Band  |   Eigenvalue      |    Occupancy   |                   <- occ
+--------+-------------------+----------------+                   <- occ
|     8  |   -.713781E+01    |   1.00000      |                   <- occ
|     9  |   -.576178E+01    |   1.00000      |                   <- occ
|    10  |   -.558976E+01    |   1.00000      |                   <- occ
|    11  |   -.424916E+01    |   1.00000      |                   <- occ
|    12  |   -.362484E+01    |  0.999882      |                   <- occ
|    13  |   -.359864E+01    |  0.999760      |                   <- occ
|    14  |   -.179612E+01    |   0.00000      |                   <- occ
|    15  |   0.277561E+00    |   0.00000      |                   <- occ
+--------+-------------------+----------------+                   <- occ
Spin 2, kpoint (-0.250000 -0.333333 -0.333333 ) weight = 0.111111
+--------+-------------------+----------------+
|  Band  |   Eigenvalue      |    Occupancy   |                   <- occ
+--------+-------------------+----------------+                   <- occ
|     8  |   -.579863E+01    |   1.00000      |                   <- occ
|     9  |   -.204098E+01    |  0.267564E-13  |                   <- occ
|    10  |   -.198035E+01    |  0.888178E-15  |                   <- occ
|    11  |   -.189123E+01    |   0.00000      |                   <- occ
|    12  |   -.108786E+01    |   0.00000      |                   <- occ
|    13  |   -.106212E+01    |   0.00000      |                   <- occ
|    14  |   -.207967E+00    |   0.00000      |                   <- occ
|    15  |   0.159481E+01    |   0.00000      |                   <- occ
+--------+-------------------+----------------+                   <- occ
Spin 2, kpoint (-0.250000  0.000000 -0.333333 ) weight = 0.111111
+--------+-------------------+----------------+
|  Band  |   Eigenvalue      |    Occupancy   |                   <- occ
+--------+-------------------+----------------+                   <- occ
|     8  |   -.574356E+01    |   1.00000      |                   <- occ
|     9  |   -.241127E+01    |  0.467952E-06  |                   <- occ
|    10  |   -.204880E+01    |  0.408007E-13  |                   <- occ
|    11  |   -.185680E+01    |   0.00000      |                   <- occ
|    12  |   -.113213E+01    |   0.00000      |                   <- occ
|    13  |   -.938301E+00    |   0.00000      |                   <- occ
|    14  |   -.397890E+00    |   0.00000      |                   <- occ
|    15  |   0.120631E+01    |   0.00000      |                   <- occ
+--------+-------------------+----------------+                   <- occ
Spin 2, kpoint (-0.250000  0.000000  0.333333 ) weight = 0.111111
+--------+-------------------+----------------+
|  Band  |   Eigenvalue      |    Occupancy   |                   <- occ
+--------+-------------------+----------------+                   <- occ
|     8  |   -.574356E+01    |   1.00000      |                   <- occ
|     9  |   -.241127E+01    |  0.467952E-06  |                   <- occ
|    10  |   -.204880E+01    |  0.408007E-13  |                   <- occ
|    11  |   -.185680E+01    |   0.00000      |                   <- occ
|    12  |   -.113213E+01    |   0.00000      |                   <- occ
|    13  |   -.938301E+00    |   0.00000      |                   <- occ
|    14  |   -.397890E+00    |   0.00000      |                   <- occ
|    15  |   0.120631E+01    |   0.00000      |                   <- occ
+--------+-------------------+----------------+                   <- occ
Spin 2, kpoint (-0.250000  0.333333  0.333333 ) weight = 0.111111
+--------+-------------------+----------------+
|  Band  |   Eigenvalue      |    Occupancy   |                   <- occ
+--------+-------------------+----------------+                   <- occ
|     8  |   -.579863E+01    |   1.00000      |                   <- occ
|     9  |   -.204098E+01    |  0.267564E-13  |                   <- occ
|    10  |   -.198035E+01    |  0.888178E-15  |                   <- occ
|    11  |   -.189123E+01    |   0.00000      |                   <- occ
|    12  |   -.108786E+01    |   0.00000      |                   <- occ
|    13  |   -.106212E+01    |   0.00000      |                   <- occ
|    14  |   -.207967E+00    |   0.00000      |                   <- occ
|    15  |   0.159481E+01    |   0.00000      |                   <- occ
+--------+-------------------+----------------+                   <- occ
Spin 2, kpoint ( 0.250000  0.333333  0.000000 ) weight = 0.111111
+--------+-------------------+----------------+
|  Band  |   Eigenvalue      |    Occupancy   |                   <- occ
+--------+-------------------+----------------+                   <- occ
|     8  |   -.574356E+01    |   1.00000      |                   <- occ
|     9  |   -.241127E+01    |  0.467951E-06  |                   <- occ
|    10  |   -.204880E+01    |  0.408007E-13  |                   <- occ
|    11  |   -.185680E+01    |   0.00000      |                   <- occ
|    12  |   -.113213E+01    |   0.00000      |                   <- occ
|    13  |   -.938300E+00    |   0.00000      |                   <- occ
|    14  |   -.397890E+00    |   0.00000      |                   <- occ
|    15  |   0.120631E+01    |   0.00000      |                   <- occ
+--------+-------------------+----------------+                   <- occ
Spin 2, kpoint (-0.250000 -0.333333  0.333333 ) weight = 0.111111
+--------+-------------------+----------------+
|  Band  |   Eigenvalue      |    Occupancy   |                   <- occ
+--------+-------------------+----------------+                   <- occ
|     8  |   -.579863E+01    |   1.00000      |                   <- occ
|     9  |   -.204098E+01    |  0.267564E-13  |                   <- occ
|    10  |   -.198035E+01    |  0.888178E-15  |                   <- occ
|    11  |   -.189123E+01    |   0.00000      |                   <- occ
|    12  |   -.108786E+01    |   0.00000      |                   <- occ
|    13  |   -.106212E+01    |   0.00000      |                   <- occ
|    14  |   -.207967E+00    |   0.00000      |                   <- occ
|    15  |   0.159481E+01    |   0.00000      |                   <- occ
+--------+-------------------+----------------+                   <- occ
Spin 2, kpoint (-0.250000  0.000000  0.000000 ) weight = 0.111111
+--------+-------------------+----------------+
|  Band  |   Eigenvalue      |    Occupancy   |                   <- occ
+--------+-------------------+----------------+                   <- occ
|     8  |   -.574775E+01    |   1.00000      |                   <- occ
|     9  |   -.281066E+01    |  0.187359E-01  |                   <- occ
|    10  |   -.214656E+01    |  0.615652E-11  |                   <- occ
|    11  |   -.182803E+01    |   0.00000      |                   <- occ
|    12  |   -.951854E+00    |   0.00000      |                   <- occ
|    13  |   -.951854E+00    |   0.00000      |                   <- occ
|    14  |   -.597052E+00    |   0.00000      |                   <- occ
|    15  |   0.190903E+01    |   0.00000      |                   <- occ
+--------+-------------------+----------------+                   <- occ
Spin 2, kpoint (-0.250000  0.333333  0.000000 ) weight = 0.111111
+--------+-------------------+----------------+
|  Band  |   Eigenvalue      |    Occupancy   |                   <- occ
+--------+-------------------+----------------+                   <- occ
|     8  |   -.574356E+01    |   1.00000      |                   <- occ
|     9  |   -.241127E+01    |  0.467951E-06  |                   <- occ
|    10  |   -.204880E+01    |  0.408007E-13  |                   <- occ
|    11  |   -.185680E+01    |   0.00000      |                   <- occ
|    12  |   -.113213E+01    |   0.00000      |                   <- occ
|    13  |   -.938300E+00    |   0.00000      |                   <- occ
|    14  |   -.397890E+00    |   0.00000      |                   <- occ
|    15  |   0.120631E+01    |   0.00000      |                   <- occ
+--------+-------------------+----------------+                   <- occ
Spin 2, kpoint ( 0.250000 -0.333333  0.333333 ) weight = 0.111111
+--------+-------------------+----------------+
|  Band  |   Eigenvalue      |    Occupancy   |                   <- occ
+--------+-------------------+----------------+                   <- occ
|     8  |   -.579863E+01    |   1.00000      |                   <- occ
|     9  |   -.204098E+01    |  0.267564E-13  |                   <- occ
|    10  |   -.198035E+01    |  0.888178E-15  |                   <- occ
|    11  |   -.189123E+01    |   0.00000      |                   <- occ
|    12  |   -.108786E+01    |   0.00000      |                   <- occ
|    13  |   -.106212E+01    |   0.00000      |                   <- occ
|    14  |   -.207967E+00    |   0.00000      |                   <- occ
|    15  |   0.159481E+01    |   0.00000      |                   <- occ
+--------+-------------------+----------------+                   <- occ
  achieved Hubbard U energy convergence:   2.0003309093852284E-007
Have a nice day.

Writing analysis data to MnO.castep_bin

Writing model to MnO.check
                            Ewald force:
Species #   1 Atom #   1 Fx: 483.919     Fy:0.185030E-13 Fz:0.185420E-13 eV/A
Species #   2 Atom #   1 Fx:-483.919     Fy:-.184017E-13 Fz:-.185483E-13 eV/A

 Pseudo atomic calculation performed for O 2s2 2p4

 Converged in 24 iterations to a total energy of -431.0932 eV

 Pseudo atomic calculation performed for Mn 3s2 3p6 3d5 4s2

 Converged in 38 iterations to a total energy of -2902.3718 eV
  Accepting available Hubbard U occ matrix: 

     Hubbard U occupation numbers
     ----------------------------
Species   Ion   l  spin               occupancies
==================================================================
  Mn       1    2   up:   0.77  0.98  0.98  1.00  1.00
                    dn:   0.00  0.00  0.31  0.31  0.34
==================================================================

 Density matrix in cubic harmonics:
     0.9433     0.0000    -0.0000     0.0980     0.0000
     0.0000     0.0000     0.0000     0.0000     0.0000
     0.0000     0.9997    -0.0000    -0.0000    -0.0000
     0.0000     0.0000     0.0000     0.0000     0.0000
    -0.0000    -0.0000     0.9783     0.0000     0.0000
     0.0000     0.0000     0.0000     0.0000     0.0000
     0.0980    -0.0000     0.0000     0.8301    -0.0000
     0.0000     0.0000     0.0000     0.0000     0.0000
     0.0000    -0.0000     0.0000    -0.0000     0.9783
     0.0000     0.0000     0.0000     0.0000     0.0000
 Hermiticity:              (0.21798350250913856,0.0000000000000000)
 Density matrix in cubic harmonics:
     0.0849     0.0000    -0.0000    -0.1470    -0.0000
     0.0000     0.0000     0.0000     0.0000     0.0000
     0.0000     0.0000    -0.0000    -0.0000     0.0000
     0.0000     0.0000     0.0000     0.0000     0.0000
    -0.0000    -0.0000     0.3081     0.0000     0.0000
     0.0000     0.0000     0.0000     0.0000     0.0000
    -0.1470    -0.0000     0.0000     0.2546     0.0000
     0.0000     0.0000     0.0000     0.0000     0.0000
    -0.0000     0.0000     0.0000     0.0000     0.3081
     0.0000     0.0000     0.0000     0.0000     0.0000
 Hermiticity:              (0.65065579791759465,0.0000000000000000)
Hubbard U energy: Ha   =    0.050145632913
Hubbard U forces Ha/A    1     7.747877115931    4.724315314592    4.724315314592    0.000000000001   -0.000000000000   -0.000000000000
Hubbard U forces Ha/A    2     4.724315314592    4.724315314592    4.724315314592   -0.000000000046   -0.000000000000   -0.000000000000
  achieved Hubbard U energy convergence:   7.3498644949913272E-007

 *********************** Ewald forces ***********************
 *                                                          *
 *               Cartesian components (eV/A)                *
 * -------------------------------------------------------- *
 *                         x            y            z      *
 *                                                          *
 * O               1    483.91934      0.00000      0.00000 *
 * Mn              1   -483.91934     -0.00000     -0.00000 *
 *                                                          *
 ************************************************************

 ****************** Local potential forces ******************
 *                                                          *
 *               Cartesian components (eV/A)                *
 * -------------------------------------------------------- *
 *                         x            y            z      *
 *                                                          *
 * O               1   -453.60814     -0.00000     -0.00000 *
 * Mn              1    496.43746      0.00000     -0.00000 *
 *                                                          *
 ************************************************************

 **************** Non-local potential forces ****************
 *                                                          *
 *               Cartesian components (eV/A)                *
 * -------------------------------------------------------- *
 *                         x            y            z      *
 *                                                          *
 * O               1    -30.02973      0.00000      0.00001 *
 * Mn              1    -13.26188      0.00000      0.00000 *
 *                                                          *
 ************************************************************

 ************** External Efield and/or dipole ***************
 *                                                          *
 *               Cartesian components (eV/A)                *
 * -------------------------------------------------------- *
 *                         x            y            z      *
 *                                                          *
 * O               1      0.00000      0.00000      0.00000 *
 * Mn              1      0.00000      0.00000      0.00000 *
 *                                                          *
 ************************************************************

 ***************** DM correction to forces ******************
 *                                                          *
 *               Cartesian components (eV/A)                *
 * -------------------------------------------------------- *
 *                         x            y            z      *
 *                                                          *
 * O               1      0.00000      0.00000      0.00000 *
 * Mn              1      0.00000      0.00000      0.00000 *
 *                                                          *
 ************************************************************

 ***************** Hubbard potential forces *****************
 *                                                          *
 *               Cartesian components (eV/A)                *
 * -------------------------------------------------------- *
 *                         x            y            z      *
 *                                                          *
 * O               1      0.00000     -0.00000     -0.00000 *
 * Mn              1     -0.00000     -0.00000     -0.00000 *
 *                                                          *
 ************************************************************

 ************************** Forces **************************
 *                                                          *
 *               Cartesian components (eV/A)                *
 * -------------------------------------------------------- *
 *                         x            y            z      *
 *                                                          *
 * O               1      0.51262      0.00000      0.00000 *
 * Mn              1     -0.51262     -0.00000     -0.00000 *
 *                                                          *
 ************************************************************

 Pseudo atomic calculation performed for O 2s2 2p4

 Converged in 24 iterations to a total energy of -431.0932 eV

 Pseudo atomic calculation performed for Mn 3s2 3p6 3d5 4s2

 Converged in 38 iterations to a total energy of -2902.3718 eV
Charge spilling parameter for spin component 1 = 0.19%
Charge spilling parameter for spin component 2 = 0.16%

                   Orbital Populations                  
  ---------------------------------------------------------------
     Ion    Atom   Orbital              Up        Down      Spin
  ---------------------------------------------------------------
      O     1      S                    0.963     0.960     0.004
      O     1      Px                   0.662     0.743    -0.081
      O     1      Py                   0.897     0.736     0.161
      O     1      Pz                   0.897     0.736     0.161
     Mn     1      S                    0.999     1.000    -0.001
     Mn     1      Px                   0.998     0.998    -0.000
     Mn     1      Py                   1.000     1.000     0.000
     Mn     1      Pz                   1.000     1.000     0.000
     Mn     1      Dzz                  0.926     0.064     0.861
     Mn     1      Dzy                  1.000    -0.000     1.000
     Mn     1      Dzx                  0.971     0.241     0.730
     Mn     1      Dxx-yy               0.778     0.193     0.585
     Mn     1      Dxy                  0.970     0.241     0.730
     Mn     1      S                    0.625     0.022     0.603
     Mn     1      Px                   0.041     0.022     0.019
     Mn     1      Py                   0.135     0.023     0.112
     Mn     1      Pz                   0.135     0.023     0.112
  ---------------------------------------------------------------
                           Total:      12.998     8.002     4.996
  ---------------------------------------------------------------
The total projected populations are: spin up   12.998   0.000, spin down    8.002   0.000, total   21.000   0.000

     Atomic Populations (Mulliken)
     -----------------------------
Species          Ion Spin      s      p      d      f     Total  Charge(e)   Spin(hbar/2)
=========================================================================================
  O               1   up:     0.96   2.46   0.00   0.00   3.42    -0.59        0.24
                  1   dn:     0.96   2.22   0.00   0.00   3.17
  Mn              1   up:     1.62   3.31   4.64   0.00   9.58     0.59        4.75
                  1   dn:     1.02   3.07   0.74   0.00   4.83
=========================================================================================

                 Bond                   Population        Spin       Length (A)
================================================================================
               O 1 -- Mn 1                   0.64        -0.03          1.60000
================================================================================


Writing analysis data to MnO.castep_bin

Writing model to MnO.check
Initialisation time =     13.41 s
Calculation time    =     17.46 s
Finalisation time   =      0.13 s
Total time          =     30.99 s
Peak Memory Use     = 511716 kB
  
Overall parallel efficiency rating: Good (78%)                                  
  
Data was distributed by:-
k-point (2-way); efficiency rating: Good (78%)                                  
  
Parallel notes:
1) Calculation only took 30.9 s, so efficiency estimates may be inaccurate.     
2) k-points were not fully distributed, there were 5 k-points per process.      
  
Efficiencies are estimated from the ratio of communication time to total time,
and do not include all the effects of serial operations or load imbalance.
