 +-------------------------------------------------+
 |                                                 |
 |      CCC   AA    SSS  TTTTT  EEEEE  PPPP        |
 |     C     A  A  S       T    E      P   P       |
 |     C     AAAA   SS     T    EEE    PPPP        |
 |     C     A  A     S    T    E      P           |
 |      CCC  A  A  SSS     T    EEEEE  P           |
 |                                                 |
 +-------------------------------------------------+
 |                                                 |
 | Welcome to Academic Release CASTEP version 19.11|          
 | Ab Initio Total Energy Program                  |
 |                                                 |
 | Authors:                                        |
 | M. Segall, M. Probert, C. Pickard, P. Hasnip,   |
 | S. Clark, K. Refson, J. R. Yates, M. Payne      |
 |                                                 |
 | Contributors:                                   |
 | P. Lindan, P. Haynes, J. White, V. Milman,      |
 | N. Govind, M. Gibson, P. Tulip, V. Cocula,      |
 | B. Montanari, D. Quigley, M. Glover,            |
 | L. Bernasconi, A. Perlov, M. Plummer,           |
 | E. McNellis, J. Meyer, J. Gale, D. Jochym       |
 | J. Aarons, B. Walker, R. Gillen, D. Jones       |
 | T. Green, I. J. Bush, C. J. Armstrong,          |
 | E. J. Higgins, E. L. Brown, M. S. McFly,        |
 | J. Wilkins, B-C. Shih, P. J. P. Byrne           |
 |                                                 |
 | Copyright (c) 2000 - 2018                       |
 |                                                 |
 |     Distributed under the terms of an           |
 |     Agreement between the United Kingdom        |
 |     Car-Parrinello (UKCP) Consortium,           |
 |     Daresbury Laboratory and Accelrys, Inc.     |
 |                                                 |
 | Please cite                                     |
 |                                                 |
 |     "First principles methods using CASTEP"     |
 |                                                 |
 |         Zeitschrift fuer Kristallographie       |
 |           220(5-6) pp. 567-570 (2005)           |
 |                                                 |
 | S. J. Clark, M. D. Segall, C. J. Pickard,       |
 | P. J. Hasnip, M. J. Probert, K. Refson,         |
 | M. C. Payne                                     |
 |                                                 |
 |       in all publications arising from          |
 |              your use of CASTEP                 |
 |                                                 |
 +-------------------------------------------------+
 |                                                 |
 |              http://www.castep.org              |
 |                                                 |
 +-------------------------------------------------+



 Compiled for linux_x86_64_gfortran7.0 on Mon, 30 Mar 2020 12:17:21 +0100
 from code version e1fe0d666396+ Castep191_branch Thu, 24 Oct 2019 13:54:03 +0100
 Compiler: GNU Fortran 7.5.0; Optimisation: fast
 MATHLIBS: Intel MKL(2019.0.5) (LAPACK version 3.7.0)
 FFT Lib : mkl
 Fundamental constants values: CODATA 2014

 Run started: Wed, 04 Nov 2020 19:33:35 +0000

 ******************************* User Parameters *******************************
iprint              : 3          # verbosity control (I)
reuse               : base.check # reuse filename (S)
writebib            : F          # output BibTeX references (L)
writeotfg           : F          # output OTFG files (L)
writecstesp         : F          # output cst_esp file (L)
spin                : 5.0000000  # net spin (R)
spinpolarised       : T          # spin polarised (L)
%block develcode    :            # developers code (B)
iprintu=8,
%endblock develcode :            # developers code (B)

 *******************************************************************************
  

 Atomic calculation performed for O: 1s2 2s2 2p4

 Converged in 60 iterations to an ae energy of -2027.926 eV


 Atomic calculation performed for Mn: 1s2 2s2 2p6 3s2 3p6 3d5 4s2

 Converged in 96 iterations to an ae energy of -31460.102 eV


 Pseudo atomic calculation performed for O 2s2 2p4

 Converged in 24 iterations to a total energy of -431.0932 eV

 Pseudo atomic calculation performed for Mn 3s2 3p6 3d5 4s2

 Converged in 38 iterations to a total energy of -2902.3718 eV
Initialising basis set.

Standard grid dimensions:  48  36  36
Fine grid dimensions:      48  36  36

Plane wave load balancing: max   5869 min   5847 average   5864
True cut-off energy of basis :  22.996
 Reusing data from model file base.check
 Number of symmetry ops  =           1

 ******************************* User Parameters *******************************
iprint              : 3          # verbosity control (I)
reuse               : base.check # reuse filename (S)
writebib            : F          # output BibTeX references (L)
writeotfg           : F          # output OTFG files (L)
writecstesp         : F          # output cst_esp file (L)
spin                : 5.0000000  # net spin (R)
spinpolarised       : T          # spin polarised (L)
%block develcode    :            # developers code (B)
iprintu=8,
%endblock develcode :            # developers code (B)

 *******************************************************************************
  

 Atomic calculation performed for O: 1s2 2s2 2p4

 Converged in 60 iterations to an ae energy of -2027.926 eV


 Atomic calculation performed for Mn: 1s2 2s2 2p6 3s2 3p6 3d5 4s2

 Converged in 96 iterations to an ae energy of -31460.102 eV


 Pseudo atomic calculation performed for O 2s2 2p4

 Converged in 24 iterations to a total energy of -431.0932 eV

 Pseudo atomic calculation performed for Mn 3s2 3p6 3d5 4s2

 Converged in 38 iterations to a total energy of -2902.3718 eV
Initialising basis set.

Standard grid dimensions:  48  36  36
Fine grid dimensions:      48  36  36

Plane wave load balancing: max   5869 min   5847 average   5864
True cut-off energy of basis :  22.996
K-point set unchanged, read in wavefunction.
Reusing density from model file.
 Calculation parallelised over 2 processes.
 Data is distributed by k-point(2-way)

 ************************************ Title ************************************
 

 ***************************** General Parameters ******************************
  
 output verbosity                               : extreme (3)
 reusing                                        : base.check
 write checkpoint data to                       : MnO.check
 type of calculation                            : single point energy
 stress calculation                             : off
 density difference calculation                 : off
 electron localisation func (ELF) calculation   : off
 Hirshfeld analysis                             : off
 unlimited duration calculation
 timing information                             : on
 memory usage estimate                          : on
 write extra output files                       : on
 write final potential to formatted file        : off
 write final density to formatted file          : off
 write BibTeX reference list                    : off
 write OTFG pseudopotential files               : off
 write electrostatic potential file             : off
 write bands file                               : on
 checkpoint writing                             : both castep_bin and check files
  
 output         length unit                     : A
 output           mass unit                     : amu
 output           time unit                     : ps
 output         charge unit                     : e
 output           spin unit                     : hbar/2
 output         energy unit                     : eV
 output          force unit                     : eV/A
 output       velocity unit                     : A/ps
 output       pressure unit                     : GPa
 output     inv_length unit                     : 1/A
 output      frequency unit                     : cm-1
 output force constant unit                     : eV/A**2
 output         volume unit                     : A**3
 output   IR intensity unit                     : (D/A)**2/amu
 output         dipole unit                     : D
 output         efield unit                     : eV/A/e
 output        entropy unit                     : J/mol/K
  
 wavefunctions paging                           : none
 random number generator seed                   : randomised (193342601)
 data distribution                              : optimal for this architecture
 optimization strategy                          : balance speed and memory

 *********************** Exchange-Correlation Parameters ***********************
  
 using functional                               : Local Density Approximation
 relativistic treatment                         : Koelling-Harmon
 DFT+D: Semi-empirical dispersion correction    : off

 ************************* Pseudopotential Parameters **************************
  
 pseudopotential representation                 : reciprocal space
 <beta|phi> representation                      : reciprocal space
 spin-orbit coupling                            : off

 **************************** Basis Set Parameters *****************************
  
 basis set accuracy                             : FINE
 plane wave basis set cut-off                   :   625.8619   eV
 size of standard grid                          :     1.7500
 size of   fine   gmax                          :    22.4293   1/A
 largest prime factor in FFT                    :          5
 finite basis set correction                    : none

 **************************** Electronic Parameters ****************************
  
 number of  electrons                           :  21.00    
 net charge of system                           :  0.000    
 net spin   of system                           :  5.000    
 number of  up  spins                           :  13.00    
 number of down spins                           :  8.000    
 treating system as spin-polarized
 number of bands                                :         17

 ********************* Electronic Minimization Parameters **********************
  
 Method: Treating system as metallic with density mixing treatment of electrons,
         and number of  SD  steps               :          1
         and number of  CG  steps               :          4
  
 total energy / atom convergence tol.           : 0.1000E-04   eV
 eigen-energy convergence tolerance             : 0.1000E-05   eV
 max force / atom convergence tol.              : ignored
 convergence tolerance window                   :          3   cycles
 max. number of SCF cycles                      :         30
 number of fixed-spin iterations                :         10
 smearing scheme                                : Gaussian
 smearing width                                 : 0.2000       eV
 Fermi energy convergence tolerance             : 0.2721E-13   eV
 periodic dipole correction                     : NONE

 ************************** Density Mixing Parameters **************************
  
 density-mixing scheme                          : Broyden
 max. length of mixing history                  :         20
 charge density mixing amplitude                : 0.8000    
   spin density mixing amplitude                :  2.000    
 charge density mixing g-vector                 :  1.500       1/A
   spin density mixing g-vector                 :  1.500       1/A

 *********************** Population Analysis Parameters ************************
  
 Population analysis with cutoff                :  3.000       A
 Population analysis output                     : summary and pdos components

 ******************************* Developer Code ********************************
  
 iprintu=8,

 *******************************************************************************
  

                           -------------------------------
                                      Unit Cell
                           -------------------------------
        Real Lattice(A)                      Reciprocal Lattice(1/A)
     6.6000000     0.0000000     0.0000000        0.951997774   0.000000000   0.000000000
     0.0000000     5.0000000     0.0000000        0.000000000   1.256637061   0.000000000
     0.0000000     0.0000000     5.0000000        0.000000000   0.000000000   1.256637061

                       Lattice parameters(A)       Cell Angles
                    a =      6.600000          alpha =   90.000000
                    b =      5.000000          beta  =   90.000000
                    c =      5.000000          gamma =   90.000000

                       Current cell volume =           165.000000       A**3
                                   density =             0.429924   AMU/A**3
                                           =             0.713905     g/cm^3

                           -------------------------------
                                     Cell Contents
                           -------------------------------
                         Total number of ions in cell =    2
                      Total number of species in cell =    2
                        Max number of any one species =    1

            xxxxxxxxxxxxxxxxxxxxxxxxxxxxxxxxxxxxxxxxxxxxxxxxxxxxxxxxxxxx
            x  Element    Atom        Fractional coordinates of atoms  x
            x            Number           u          v          w      x
            x----------------------------------------------------------x
            x  O            1         0.621212   0.500000   0.500000   x 
            x  Mn           1         0.378788   0.500000   0.500000   x 
            xxxxxxxxxxxxxxxxxxxxxxxxxxxxxxxxxxxxxxxxxxxxxxxxxxxxxxxxxxxx


                         No user defined ionic velocities

                           -------------------------------
                                   Details of Species
                           -------------------------------

                               Mass of species in AMU
                                    O   15.9994000
                                    Mn   54.9380500

                          Electric Quadrupole Moment (Barn)
                                    O   -0.0255800 Isotope 17
                                    Mn    0.3300000 Isotope 55


         Quantisation axis:    0.00000   0.00000   1.00000

         Units for Hubbard U values are eV
         xxxxxxxxxxxxxxxxxxxxxxxxxxxxxxxxxxxxxxxxxxxxxxxxxxxxxxxxxxxxxxxxxxxx
         |  Element     Atom     Hubbard U   values by orbital type         |
         |             Number      s          p          d          f       |
         |------------------------------------------------------------------|
         |O             1         0.00000    0.00000    0.00000    0.00000  |
         |Mn            1         0.00000    0.00000    0.00000    0.00000  |
         xxxxxxxxxxxxxxxxxxxxxxxxxxxxxxxxxxxxxxxxxxxxxxxxxxxxxxxxxxxxxxxxxxxx


                          Files used for pseudopotentials:
                                    O 2|1.1|17|20|23|20:21(qc=8)
                                    Mn 3|1.8|1.8|0.6|12|14|16|30U:40:31:32(qc=7)

                           -------------------------------
                              k-Points For BZ Sampling
                           -------------------------------
                       MP grid size for SCF calculation is  2  3  3
                            with an offset of   0.000  0.000  0.000
                       Number of kpoints used =             9

             +++++++++++++++++++++++++++++++++++++++++++++++++++++++
             +  Number       Fractional coordinates        Weight  +
             +-----------------------------------------------------+
             +     1  -0.250000  -0.333333  -0.333333   0.1111111  +
             +     2  -0.250000  -0.333333   0.333333   0.1111111  +
             +     3  -0.250000   0.000000  -0.333333   0.1111111  +
             +     4  -0.250000   0.000000   0.000000   0.1111111  +
             +     5  -0.250000   0.000000   0.333333   0.1111111  +
             +     6  -0.250000   0.333333   0.000000   0.1111111  +
             +     7  -0.250000   0.333333   0.333333   0.1111111  +
             +     8   0.250000  -0.333333   0.333333   0.1111111  +
             +     9   0.250000   0.333333   0.000000   0.1111111  +
             +++++++++++++++++++++++++++++++++++++++++++++++++++++++

                           -------------------------------
                               Symmetry and Constraints
                           -------------------------------

                      Maximum deviation from symmetry =  0.00000         ANG

                      Number of symmetry operations   =           1
                      Number of ionic constraints     =           3
                      Point group of crystal =     1: C1, 1, 1
                      Space group of crystal =    99: P4mm, P 4 -2

                    1 rotation    
                 (   1.00000000000   0.00000000000   0.00000000000 )
                 (   0.00000000000   1.00000000000   0.00000000000 )
                 (   0.00000000000   0.00000000000   1.00000000000 )
                    1 displacement
                 (   0.00000000000   0.00000000000   0.00000000000 )
                      symmetry related atoms: 
             O:    1
             Mn:    1


                         Centre of mass is constrained

            xxxxxxxxxxxxxxxxxxxxxxxxxxxxxxxxxxxxxxxxxxxxxxxxxxxxxxxxxxxxxx....
            x  Species       atom   co-ordinate  constraints.....         
            x-------------------------------------------------------------....
            x O                 1       x        29165.1220      0.0000      0.0000
            x O                 1       y            0.0000  29165.1220      0.0000
            x O                 1       z            0.0000      0.0000  29165.1220
            x Mn                1       x       100145.9388      0.0000      0.0000
            x Mn                1       y            0.0000 100145.9388      0.0000
            x Mn                1       z            0.0000      0.0000 100145.9388
            xxxxxxxxxxxxxxxxxxxxxxxxxxxxxxxxxxxxxxxxxxxxxxxxxxxxxxxxxxxxxx....

                         Number of cell constraints= 0
                         Cell constraints are:  1 2 3 4 5 6

                         External pressure/stress (GPa)
                          0.00000   0.00000   0.00000
                                    0.00000   0.00000
                                              0.00000
Density mixing plane wave load balancing: max      0 min      0 average      0
  
+---------------- MEMORY AND SCRATCH DISK ESTIMATES PER PROCESS --------------+
|                                                     Memory          Disk    |
| Baseline code, static data and system overhead      354.0 MB         0.0 MB |
| BLAS internal memory storage                          0.0 MB         0.0 MB |
| Model and support data                               67.2 MB       110.4 MB |
| Electronic energy minimisation requirements          51.6 MB         0.0 MB |
| Force calculation requirements                       13.8 MB         0.0 MB |
|                                               ----------------------------- |
| Approx. total storage required per process          472.8 MB       110.4 MB |
|                                                                             |
| Requirements will fluctuate during execution and may exceed these estimates |
+-----------------------------------------------------------------------------+
Calculating total energy with cut-off of  625.862 eV.
electronic_minimisation: Initialising

 Pseudo atomic calculation performed for O 2s2 2p4

 Converged in 24 iterations to a total energy of -431.0932 eV

 Pseudo atomic calculation performed for Mn 3s2 3p6 3d5 4s2

 Converged in 38 iterations to a total energy of -2902.3718 eV
  Initializing Hubbard U occ matrix: 

     Hubbard U occupation numbers
     ----------------------------
Species   Ion   l  spin               occupancies
==================================================================
  Mn       1    2   up:   0.00  0.00  1.00  1.00  1.00
                    dn:   0.00  0.00  1.00  1.00  1.00
==================================================================

electronic_minimisation: Initialising density mixing
 Initialising mixing density basis set.
Density mixing plane wave load balancing: max   5871 min   5871 average   5871
Calculating Ewald energy for ionic configuration
              Ewald: real-space energy =     359.826811 eV
        Ewald: reciprocal-space energy =      93.920754 eV
         Ewald: (sum_charge)**2 Energy =     459.468501 eV
         Ewald: (sum_charge**2) Energy =     769.135141 eV
                          Ewald Energy =    -774.856077 eV
Calculating non-Coulombic energy for ionic configuration
Symmetrising density
Calculating local potential
Calculating Hubbard U potential
 Density matrix in cubic harmonics:
     1.0000     0.0000     0.0000     0.0000     0.0000
     0.0000     0.0000     0.0000     0.0000     0.0000
     0.0000     0.0000     0.0000     0.0000     0.0000
     0.0000     0.0000     0.0000     0.0000     0.0000
     0.0000     0.0000     0.0000     0.0000     0.0000
     0.0000     0.0000     0.0000     0.0000     0.0000
     0.0000     0.0000     0.0000     1.0000     0.0000
     0.0000     0.0000     0.0000     0.0000     0.0000
     0.0000     0.0000     0.0000     0.0000     1.0000
     0.0000     0.0000     0.0000     0.0000     0.0000
 Hermiticity:        (-4.44089209850062616E-016,0.0000000000000000)
 Density matrix in cubic harmonics:
     1.0000     0.0000     0.0000     0.0000     0.0000
     0.0000     0.0000     0.0000     0.0000     0.0000
     0.0000     0.0000     0.0000     0.0000     0.0000
     0.0000     0.0000     0.0000     0.0000     0.0000
     0.0000     0.0000     0.0000     0.0000     0.0000
     0.0000     0.0000     0.0000     0.0000     0.0000
     0.0000     0.0000     0.0000     1.0000     0.0000
     0.0000     0.0000     0.0000     0.0000     0.0000
     0.0000     0.0000     0.0000     0.0000     1.0000
     0.0000     0.0000     0.0000     0.0000     0.0000
 Hermiticity:        (-4.44089209850062616E-016,0.0000000000000000)
Calculating non-local weights
Calculating KE and non-local eigenvalues to find total energy
 
Init
Exchange-correlation energy      =      -499.07913191541501874 eV
+Hartree energy                  =      2055.86480228865912068 eV
+Local pseudopotential energy    =     -5072.04198973965321784 eV
----------------------------------
Potential energy (total)         =     -3515.25631936638410480 eV
                                  
+Hubbard U energy                =         2.40000000000000036 eV
+Kinetic energy                  =       776.91409201055114409 eV
+Non-local energy                =       152.02656221898419631 eV
+Electronic entropy term (-TS)   =         0.00000000000000000 eV
+Ewald energy (const)            =      -774.85607651874397561 eV
+non-Coulombic energy (const)    =        13.80612138473854067 eV
----------------------------------
Total free energy (E-TS)         =     -3344.96562027085383306 eV
 
NB est. 0K energy (E-0.5TS)      =     -3344.96562027085383306 eV
 
(XC correction to eigenvalue sum =        44.01690523340165129 eV)
(Hubbard U correction to eigenvalu         0.00000003000000000 eV)
 
------------------------------------------------------------------------ <-- SCF
SCF loop      Energy           Fermi           Energy gain       Timer   <-- SCF
                               energy          per atom          (sec)   <-- SCF
------------------------------------------------------------------------ <-- SCF
Initial  -3.34496562E+003  0.00000000E+000                        16.50  <-- SCF
Starting SCF cycle     1 of up to    30
 no. bands in each block=           8
Kinetic eigenvalue #   1 =     0.38348966E+02
Kinetic eigenvalue #   2 =     0.39990483E+02
Kinetic eigenvalue #   3 =     0.39990481E+02
Kinetic eigenvalue #   4 =     0.39595183E+02
Kinetic eigenvalue #   5 =     0.25112526E+02
Kinetic eigenvalue #   6 =     0.42186730E+02
Kinetic eigenvalue #   7 =     0.37391956E+02
Kinetic eigenvalue #   8 =     0.37412407E+02
Kinetic eigenvalue #   9 =     0.37900587E+02
Kinetic eigenvalue #  10 =     0.37455926E+02
Kinetic eigenvalue #  11 =     0.23372304E+02
Kinetic eigenvalue #  12 =     0.38336692E+02
Kinetic eigenvalue #  13 =     0.38452582E+02
Kinetic eigenvalue #  14 =     0.24719286E+02
Kinetic eigenvalue #  15 =     0.13655775E+02
Kinetic eigenvalue #  16 =     0.14273377E+02
Kinetic eigenvalue #  17 =     0.77296045E+01
 Calculating the R matrix for the precon Sinv operator
 Diagonalising expanded subspace
 Copying updated data back
eigenvalue    1 init= -83.96     fin= -83.96     change= 0.2191E-08
eigenvalue    2 init= -53.14     fin= -53.14     change= 0.1012E-09
eigenvalue    3 init= -53.14     fin= -53.14     change= 0.8708E-10
eigenvalue    4 init= -52.98     fin= -52.98     change= 0.8328E-08
eigenvalue    5 init= -20.17     fin= -20.17     change= 0.1670E-04
eigenvalue    6 init= -7.474     fin= -7.474     change= 0.1144E-03
eigenvalue    7 init= -6.991     fin= -6.991     change= 0.2231E-04
eigenvalue    8 init= -6.990     fin= -6.990     change= 0.2204E-04
 Checking convergence criteria
 Diagonalising expanded subspace
 Copying updated data back
eigenvalue    1 init= -83.96     fin= -83.96     change= 0.2205E-08
eigenvalue    2 init= -53.14     fin= -53.14     change= 0.1026E-09
eigenvalue    3 init= -53.14     fin= -53.14     change= 0.8773E-10
eigenvalue    4 init= -52.98     fin= -52.98     change= 0.8839E-08
eigenvalue    5 init= -20.17     fin= -20.17     change= 0.1762E-04
eigenvalue    6 init= -7.474     fin= -7.474     change= 0.1223E-03
eigenvalue    7 init= -6.991     fin= -6.991     change= 0.2414E-04
eigenvalue    8 init= -6.990     fin= -6.990     change= 0.2379E-04
 Checking convergence criteria
 Diagonalising expanded subspace
 Copying updated data back
eigenvalue    9 init= -5.451     fin= -5.451     change= 0.5946E-06
eigenvalue   10 init= -5.280     fin= -5.280     change= 0.2811E-05
eigenvalue   11 init= -4.138     fin= -4.138     change= 0.7866E-04
eigenvalue   12 init= -3.497     fin= -3.497     change= 0.2086E-04
eigenvalue   13 init= -3.470     fin= -3.470     change= 0.3483E-04
eigenvalue   14 init= -1.710     fin= -1.710     change= 0.8127E-04
eigenvalue   15 init= 0.3085     fin= 0.3085     change= 0.2582E-05
eigenvalue   16 init= 0.4393     fin= 0.4393     change= 0.1584E-05
 Checking convergence criteria
 Diagonalising expanded subspace
 Copying updated data back
eigenvalue    9 init= -5.451     fin= -5.451     change= 0.5962E-06
eigenvalue   10 init= -5.280     fin= -5.280     change= 0.3121E-05
eigenvalue   11 init= -4.138     fin= -4.138     change= 0.8693E-04
eigenvalue   12 init= -3.497     fin= -3.497     change= 0.2337E-04
eigenvalue   13 init= -3.470     fin= -3.470     change= 0.3860E-04
eigenvalue   14 init= -1.710     fin= -1.710     change= 0.9247E-04
eigenvalue   15 init= 0.3085     fin= 0.3085     change= 0.3403E-05
eigenvalue   16 init= 0.4393     fin= 0.4393     change= 0.1971E-05
 Checking convergence criteria
 Diagonalising expanded subspace
 Copying updated data back
eigenvalue   17 init=  2.644     fin=  2.644     change= 0.6441E-05
 Checking convergence criteria
 Diagonalising expanded subspace
 Copying updated data back
eigenvalue   17 init=  2.644     fin=  2.644     change= 0.1014E-04
 Checking convergence criteria
 Diagonalising expanded subspace
 Copying updated data back
eigenvalue   17 init=  2.644     fin=  2.644     change= 0.1306E-04
 Checking convergence criteria
 Diagonalising expanded subspace
 Copying updated data back
eigenvalue   17 init=  2.644     fin=  2.644     change= 0.1547E-04
 Checking convergence criteria
 Diagonalising expanded subspace
 Copying updated data back
eigenvalue   17 init=  2.644     fin=  2.644     change= 0.1705E-04
 Checking convergence criteria
 no. bands in each block=           8
Kinetic eigenvalue #   1 =     0.38348939E+02
Kinetic eigenvalue #   2 =     0.39990472E+02
Kinetic eigenvalue #   3 =     0.39990660E+02
Kinetic eigenvalue #   4 =     0.39595175E+02
Kinetic eigenvalue #   5 =     0.25099043E+02
Kinetic eigenvalue #   6 =     0.42122292E+02
Kinetic eigenvalue #   7 =     0.37333011E+02
Kinetic eigenvalue #   8 =     0.37797759E+02
Kinetic eigenvalue #   9 =     0.37459158E+02
Kinetic eigenvalue #  10 =     0.37726085E+02
Kinetic eigenvalue #  11 =     0.20289061E+02
Kinetic eigenvalue #  12 =     0.37545413E+02
Kinetic eigenvalue #  13 =     0.41168583E+02
Kinetic eigenvalue #  14 =     0.25570923E+02
Kinetic eigenvalue #  15 =     0.13556301E+02
Kinetic eigenvalue #  16 =     0.80528776E+01
Kinetic eigenvalue #  17 =     0.17119358E+02
 Calculating the R matrix for the precon Sinv operator
 Diagonalising expanded subspace
 Copying updated data back
eigenvalue    1 init= -83.96     fin= -83.96     change= 0.2391E-08
eigenvalue    2 init= -53.14     fin= -53.14     change= 0.9376E-10
eigenvalue    3 init= -53.14     fin= -53.14     change= 0.7222E-10
eigenvalue    4 init= -52.98     fin= -52.98     change= 0.7514E-08
eigenvalue    5 init= -20.18     fin= -20.18     change= 0.1496E-04
eigenvalue    6 init= -7.477     fin= -7.478     change= 0.1026E-03
eigenvalue    7 init= -6.995     fin= -6.995     change= 0.2386E-04
eigenvalue    8 init= -6.958     fin= -6.958     change= 0.1278E-04
 Checking convergence criteria
 Diagonalising expanded subspace
 Copying updated data back
eigenvalue    1 init= -83.96     fin= -83.96     change= 0.2417E-08
eigenvalue    2 init= -53.14     fin= -53.14     change= 0.9473E-10
eigenvalue    3 init= -53.14     fin= -53.14     change= 0.7260E-10
eigenvalue    4 init= -52.98     fin= -52.98     change= 0.7971E-08
eigenvalue    5 init= -20.18     fin= -20.18     change= 0.1573E-04
eigenvalue    6 init= -7.477     fin= -7.478     change= 0.1095E-03
eigenvalue    7 init= -6.995     fin= -6.995     change= 0.2574E-04
eigenvalue    8 init= -6.958     fin= -6.958     change= 0.1358E-04
 Checking convergence criteria
 Diagonalising expanded subspace
 Copying updated data back
eigenvalue    9 init= -5.483     fin= -5.483     change= 0.1118E-05
eigenvalue   10 init= -5.263     fin= -5.263     change= 0.1879E-05
eigenvalue   11 init= -4.403     fin= -4.403     change= 0.6281E-04
eigenvalue   12 init= -3.518     fin= -3.518     change= 0.2947E-04
eigenvalue   13 init= -3.366     fin= -3.366     change= 0.1137E-04
eigenvalue   14 init= -1.890     fin= -1.890     change= 0.8027E-04
eigenvalue   15 init= -.5541E-01 fin= -.5541E-01 change= 0.3190E-05
eigenvalue   16 init=  2.030     fin=  2.030     change= 0.1146E-04
 Checking convergence criteria
 Diagonalising expanded subspace
 Copying updated data back
eigenvalue    9 init= -5.483     fin= -5.483     change= 0.1230E-05
eigenvalue   10 init= -5.263     fin= -5.263     change= 0.2045E-05
eigenvalue   11 init= -4.403     fin= -4.403     change= 0.7033E-04
eigenvalue   12 init= -3.518     fin= -3.518     change= 0.3308E-04
eigenvalue   13 init= -3.366     fin= -3.366     change= 0.1224E-04
eigenvalue   14 init= -1.890     fin= -1.890     change= 0.9309E-04
eigenvalue   15 init= -.5541E-01 fin= -.5542E-01 change= 0.4050E-05
eigenvalue   16 init=  2.030     fin=  2.030     change= 0.1673E-04
 Checking convergence criteria
 Diagonalising expanded subspace
 Copying updated data back
eigenvalue    9 init= -5.483     fin= -5.483     change= 0.1234E-05
eigenvalue   10 init= -5.263     fin= -5.263     change= 0.2045E-05
eigenvalue   11 init= -4.403     fin= -4.403     change= 0.7091E-04
eigenvalue   12 init= -3.518     fin= -3.518     change= 0.3336E-04
eigenvalue   13 init= -3.366     fin= -3.366     change= 0.1226E-04
eigenvalue   14 init= -1.890     fin= -1.890     change= 0.9478E-04
eigenvalue   15 init= -.5541E-01 fin= -.5542E-01 change= 0.4215E-05
eigenvalue   16 init=  2.030     fin=  2.030     change= 0.1936E-04
 Checking convergence criteria
 Diagonalising expanded subspace
 Copying updated data back
eigenvalue   17 init=  2.486     fin=  2.486     change= 0.3941E-06
 Checking convergence criteria
 no. bands in each block=           8
Kinetic eigenvalue #   1 =     0.38348954E+02
Kinetic eigenvalue #   2 =     0.39990472E+02
Kinetic eigenvalue #   3 =     0.39990660E+02
Kinetic eigenvalue #   4 =     0.39595175E+02
Kinetic eigenvalue #   5 =     0.25099043E+02
Kinetic eigenvalue #   6 =     0.42122290E+02
Kinetic eigenvalue #   7 =     0.37333009E+02
Kinetic eigenvalue #   8 =     0.37797753E+02
Kinetic eigenvalue #   9 =     0.37459157E+02
Kinetic eigenvalue #  10 =     0.37726085E+02
Kinetic eigenvalue #  11 =     0.20289048E+02
Kinetic eigenvalue #  12 =     0.37545412E+02
Kinetic eigenvalue #  13 =     0.41168606E+02
Kinetic eigenvalue #  14 =     0.25570897E+02
Kinetic eigenvalue #  15 =     0.13556246E+02
Kinetic eigenvalue #  16 =     0.80526225E+01
Kinetic eigenvalue #  17 =     0.17119021E+02
 Calculating the R matrix for the precon Sinv operator
 Diagonalising expanded subspace
 Copying updated data back
eigenvalue    1 init= -83.96     fin= -83.96     change= 0.2251E-08
eigenvalue    2 init= -53.14     fin= -53.14     change= 0.9378E-10
eigenvalue    3 init= -53.14     fin= -53.14     change= 0.7209E-10
eigenvalue    4 init= -52.98     fin= -52.98     change= 0.7513E-08
eigenvalue    5 init= -20.18     fin= -20.18     change= 0.1496E-04
eigenvalue    6 init= -7.477     fin= -7.478     change= 0.1028E-03
eigenvalue    7 init= -6.995     fin= -6.995     change= 0.2386E-04
eigenvalue    8 init= -6.958     fin= -6.958     change= 0.1278E-04
 Checking convergence criteria
 Diagonalising expanded subspace
 Copying updated data back
eigenvalue    1 init= -83.96     fin= -83.96     change= 0.2269E-08
eigenvalue    2 init= -53.14     fin= -53.14     change= 0.9470E-10
eigenvalue    3 init= -53.14     fin= -53.14     change= 0.7248E-10
eigenvalue    4 init= -52.98     fin= -52.98     change= 0.7972E-08
eigenvalue    5 init= -20.18     fin= -20.18     change= 0.1574E-04
eigenvalue    6 init= -7.477     fin= -7.478     change= 0.1095E-03
eigenvalue    7 init= -6.995     fin= -6.995     change= 0.2574E-04
eigenvalue    8 init= -6.958     fin= -6.958     change= 0.1357E-04
 Checking convergence criteria
 Diagonalising expanded subspace
 Copying updated data back
eigenvalue    9 init= -5.483     fin= -5.483     change= 0.1119E-05
eigenvalue   10 init= -5.263     fin= -5.263     change= 0.1878E-05
eigenvalue   11 init= -4.403     fin= -4.403     change= 0.6281E-04
eigenvalue   12 init= -3.518     fin= -3.518     change= 0.2952E-04
eigenvalue   13 init= -3.366     fin= -3.366     change= 0.1139E-04
eigenvalue   14 init= -1.890     fin= -1.890     change= 0.8038E-04
eigenvalue   15 init= -.5541E-01 fin= -.5541E-01 change= 0.3173E-05
eigenvalue   16 init=  2.030     fin=  2.030     change= 0.1148E-04
 Checking convergence criteria
 Diagonalising expanded subspace
 Copying updated data back
eigenvalue    9 init= -5.483     fin= -5.483     change= 0.1229E-05
eigenvalue   10 init= -5.263     fin= -5.263     change= 0.2044E-05
eigenvalue   11 init= -4.403     fin= -4.403     change= 0.7021E-04
eigenvalue   12 init= -3.518     fin= -3.518     change= 0.3307E-04
eigenvalue   13 init= -3.366     fin= -3.366     change= 0.1224E-04
eigenvalue   14 init= -1.890     fin= -1.890     change= 0.9296E-04
eigenvalue   15 init= -.5541E-01 fin= -.5542E-01 change= 0.3977E-05
eigenvalue   16 init=  2.030     fin=  2.030     change= 0.1649E-04
 Checking convergence criteria
 Diagonalising expanded subspace
 Copying updated data back
eigenvalue    9 init= -5.483     fin= -5.483     change= 0.1233E-05
eigenvalue   10 init= -5.263     fin= -5.263     change= 0.2044E-05
eigenvalue   11 init= -4.403     fin= -4.403     change= 0.7086E-04
eigenvalue   12 init= -3.518     fin= -3.518     change= 0.3339E-04
eigenvalue   13 init= -3.366     fin= -3.366     change= 0.1225E-04
eigenvalue   14 init= -1.890     fin= -1.890     change= 0.9473E-04
eigenvalue   15 init= -.5541E-01 fin= -.5542E-01 change= 0.4152E-05
eigenvalue   16 init=  2.030     fin=  2.030     change= 0.1890E-04
 Checking convergence criteria
 Diagonalising expanded subspace
 Copying updated data back
eigenvalue   17 init=  2.486     fin=  2.486     change= 0.4032E-06
 Checking convergence criteria
 no. bands in each block=           8
Kinetic eigenvalue #   1 =     0.38348971E+02
Kinetic eigenvalue #   2 =     0.39990483E+02
Kinetic eigenvalue #   3 =     0.39990481E+02
Kinetic eigenvalue #   4 =     0.39595183E+02
Kinetic eigenvalue #   5 =     0.25112526E+02
Kinetic eigenvalue #   6 =     0.42186747E+02
Kinetic eigenvalue #   7 =     0.37391950E+02
Kinetic eigenvalue #   8 =     0.37412406E+02
Kinetic eigenvalue #   9 =     0.37900587E+02
Kinetic eigenvalue #  10 =     0.37455932E+02
Kinetic eigenvalue #  11 =     0.23372275E+02
Kinetic eigenvalue #  12 =     0.38336693E+02
Kinetic eigenvalue #  13 =     0.38452615E+02
Kinetic eigenvalue #  14 =     0.24719402E+02
Kinetic eigenvalue #  15 =     0.13655755E+02
Kinetic eigenvalue #  16 =     0.14273376E+02
Kinetic eigenvalue #  17 =     0.77276904E+01
 Calculating the R matrix for the precon Sinv operator
 Diagonalising expanded subspace
 Copying updated data back
eigenvalue    1 init= -83.96     fin= -83.96     change= 0.2159E-08
eigenvalue    2 init= -53.14     fin= -53.14     change= 0.1009E-09
eigenvalue    3 init= -53.14     fin= -53.14     change= 0.8716E-10
eigenvalue    4 init= -52.98     fin= -52.98     change= 0.8338E-08
eigenvalue    5 init= -20.17     fin= -20.17     change= 0.1672E-04
eigenvalue    6 init= -7.474     fin= -7.474     change= 0.1146E-03
eigenvalue    7 init= -6.991     fin= -6.991     change= 0.2231E-04
eigenvalue    8 init= -6.990     fin= -6.990     change= 0.2204E-04
 Checking convergence criteria
 Diagonalising expanded subspace
 Copying updated data back
eigenvalue    1 init= -83.96     fin= -83.96     change= 0.2172E-08
eigenvalue    2 init= -53.14     fin= -53.14     change= 0.1022E-09
eigenvalue    3 init= -53.14     fin= -53.14     change= 0.8780E-10
eigenvalue    4 init= -52.98     fin= -52.98     change= 0.8839E-08
eigenvalue    5 init= -20.17     fin= -20.17     change= 0.1763E-04
eigenvalue    6 init= -7.474     fin= -7.474     change= 0.1224E-03
eigenvalue    7 init= -6.991     fin= -6.991     change= 0.2411E-04
eigenvalue    8 init= -6.990     fin= -6.990     change= 0.2379E-04
 Checking convergence criteria
 Diagonalising expanded subspace
 Copying updated data back
eigenvalue    9 init= -5.451     fin= -5.451     change= 0.5946E-06
eigenvalue   10 init= -5.280     fin= -5.280     change= 0.2814E-05
eigenvalue   11 init= -4.138     fin= -4.138     change= 0.7951E-04
eigenvalue   12 init= -3.497     fin= -3.497     change= 0.2086E-04
eigenvalue   13 init= -3.470     fin= -3.470     change= 0.3487E-04
eigenvalue   14 init= -1.710     fin= -1.710     change= 0.8279E-04
eigenvalue   15 init= 0.3085     fin= 0.3085     change= 0.2596E-05
eigenvalue   16 init= 0.4393     fin= 0.4393     change= 0.1584E-05
 Checking convergence criteria
 Diagonalising expanded subspace
 Copying updated data back
eigenvalue    9 init= -5.451     fin= -5.451     change= 0.5962E-06
eigenvalue   10 init= -5.280     fin= -5.280     change= 0.3125E-05
eigenvalue   11 init= -4.138     fin= -4.138     change= 0.8726E-04
eigenvalue   12 init= -3.497     fin= -3.497     change= 0.2337E-04
eigenvalue   13 init= -3.470     fin= -3.470     change= 0.3868E-04
eigenvalue   14 init= -1.710     fin= -1.710     change= 0.9362E-04
eigenvalue   15 init= 0.3085     fin= 0.3085     change= 0.3480E-05
eigenvalue   16 init= 0.4393     fin= 0.4393     change= 0.1970E-05
 Checking convergence criteria
 Diagonalising expanded subspace
 Copying updated data back
eigenvalue   17 init=  2.644     fin=  2.644     change= 0.5803E-05
 Checking convergence criteria
 Diagonalising expanded subspace
 Copying updated data back
eigenvalue   17 init=  2.644     fin=  2.644     change= 0.8915E-05
 Checking convergence criteria
 Diagonalising expanded subspace
 Copying updated data back
eigenvalue   17 init=  2.644     fin=  2.644     change= 0.1177E-04
 Checking convergence criteria
 Diagonalising expanded subspace
 Copying updated data back
eigenvalue   17 init=  2.644     fin=  2.644     change= 0.1385E-04
 Checking convergence criteria
 Diagonalising expanded subspace
 Copying updated data back
eigenvalue   17 init=  2.644     fin=  2.644     change= 0.1516E-04
 Checking convergence criteria
 no. bands in each block=           8
Kinetic eigenvalue #   1 =     0.38348960E+02
Kinetic eigenvalue #   2 =     0.39990472E+02
Kinetic eigenvalue #   3 =     0.39990660E+02
Kinetic eigenvalue #   4 =     0.39595175E+02
Kinetic eigenvalue #   5 =     0.25099043E+02
Kinetic eigenvalue #   6 =     0.42122289E+02
Kinetic eigenvalue #   7 =     0.37333012E+02
Kinetic eigenvalue #   8 =     0.37797753E+02
Kinetic eigenvalue #   9 =     0.37459155E+02
Kinetic eigenvalue #  10 =     0.37726085E+02
Kinetic eigenvalue #  11 =     0.20289011E+02
Kinetic eigenvalue #  12 =     0.37545438E+02
Kinetic eigenvalue #  13 =     0.41168603E+02
Kinetic eigenvalue #  14 =     0.25571076E+02
Kinetic eigenvalue #  15 =     0.13556085E+02
Kinetic eigenvalue #  16 =     0.80522571E+01
Kinetic eigenvalue #  17 =     0.17118951E+02
 Calculating the R matrix for the precon Sinv operator
 Diagonalising expanded subspace
 Copying updated data back
eigenvalue    1 init= -83.96     fin= -83.96     change= 0.2228E-08
eigenvalue    2 init= -53.14     fin= -53.14     change= 0.9354E-10
eigenvalue    3 init= -53.14     fin= -53.14     change= 0.7250E-10
eigenvalue    4 init= -52.98     fin= -52.98     change= 0.7510E-08
eigenvalue    5 init= -20.18     fin= -20.18     change= 0.1496E-04
eigenvalue    6 init= -7.477     fin= -7.478     change= 0.1027E-03
eigenvalue    7 init= -6.995     fin= -6.995     change= 0.2386E-04
eigenvalue    8 init= -6.958     fin= -6.958     change= 0.1278E-04
 Checking convergence criteria
 Diagonalising expanded subspace
 Copying updated data back
eigenvalue    1 init= -83.96     fin= -83.96     change= 0.2244E-08
eigenvalue    2 init= -53.14     fin= -53.14     change= 0.9451E-10
eigenvalue    3 init= -53.14     fin= -53.14     change= 0.7286E-10
eigenvalue    4 init= -52.98     fin= -52.98     change= 0.7970E-08
eigenvalue    5 init= -20.18     fin= -20.18     change= 0.1574E-04
eigenvalue    6 init= -7.477     fin= -7.478     change= 0.1095E-03
eigenvalue    7 init= -6.995     fin= -6.995     change= 0.2574E-04
eigenvalue    8 init= -6.958     fin= -6.958     change= 0.1357E-04
 Checking convergence criteria
 Diagonalising expanded subspace
 Copying updated data back
eigenvalue    9 init= -5.483     fin= -5.483     change= 0.1118E-05
eigenvalue   10 init= -5.263     fin= -5.263     change= 0.1879E-05
eigenvalue   11 init= -4.403     fin= -4.403     change= 0.6282E-04
eigenvalue   12 init= -3.518     fin= -3.518     change= 0.2953E-04
eigenvalue   13 init= -3.366     fin= -3.366     change= 0.1139E-04
eigenvalue   14 init= -1.890     fin= -1.890     change= 0.8058E-04
eigenvalue   15 init= -.5541E-01 fin= -.5542E-01 change= 0.3087E-05
eigenvalue   16 init=  2.030     fin=  2.030     change= 0.1112E-04
 Checking convergence criteria
 Diagonalising expanded subspace
 Copying updated data back
eigenvalue    9 init= -5.483     fin= -5.483     change= 0.1226E-05
eigenvalue   10 init= -5.263     fin= -5.263     change= 0.2045E-05
eigenvalue   11 init= -4.403     fin= -4.403     change= 0.6957E-04
eigenvalue   12 init= -3.518     fin= -3.518     change= 0.3307E-04
eigenvalue   13 init= -3.366     fin= -3.366     change= 0.1228E-04
eigenvalue   14 init= -1.890     fin= -1.890     change= 0.9190E-04
eigenvalue   15 init= -.5541E-01 fin= -.5542E-01 change= 0.3831E-05
eigenvalue   16 init=  2.030     fin=  2.030     change= 0.1516E-04
 Checking convergence criteria
 Diagonalising expanded subspace
 Copying updated data back
eigenvalue    9 init= -5.483     fin= -5.483     change= 0.1233E-05
eigenvalue   10 init= -5.263     fin= -5.263     change= 0.2045E-05
eigenvalue   11 init= -4.403     fin= -4.403     change= 0.7076E-04
eigenvalue   12 init= -3.518     fin= -3.518     change= 0.3348E-04
eigenvalue   13 init= -3.366     fin= -3.366     change= 0.1230E-04
eigenvalue   14 init= -1.890     fin= -1.890     change= 0.9491E-04
eigenvalue   15 init= -.5541E-01 fin= -.5542E-01 change= 0.3998E-05
eigenvalue   16 init=  2.030     fin=  2.030     change= 0.1804E-04
 Checking convergence criteria
 Diagonalising expanded subspace
 Copying updated data back
eigenvalue   17 init=  2.486     fin=  2.486     change= 0.3881E-06
 Checking convergence criteria
 no. bands in each block=           8
Kinetic eigenvalue #   1 =     0.37872827E+02
Kinetic eigenvalue #   2 =     0.39259389E+02
Kinetic eigenvalue #   3 =     0.39828255E+02
Kinetic eigenvalue #   4 =     0.39828260E+02
Kinetic eigenvalue #   5 =     0.25186723E+02
Kinetic eigenvalue #   6 =     0.43805622E+02
Kinetic eigenvalue #   7 =     0.37875739E+02
Kinetic eigenvalue #   8 =     0.37953623E+02
Kinetic eigenvalue #   9 =     0.36819316E+02
Kinetic eigenvalue #  10 =     0.32265673E+02
Kinetic eigenvalue #  11 =     0.22439585E+02
Kinetic eigenvalue #  12 =     0.36089903E+02
Kinetic eigenvalue #  13 =     0.36345366E+02
Kinetic eigenvalue #  14 =     0.23975481E+02
Kinetic eigenvalue #  15 =     0.13730900E+02
Kinetic eigenvalue #  16 =     0.14861435E+02
Kinetic eigenvalue #  17 =     0.80852684E+01
 Calculating the R matrix for the precon Sinv operator
 Diagonalising expanded subspace
 Copying updated data back
eigenvalue    1 init= -80.00     fin= -80.00     change= 0.3982E-08
eigenvalue    2 init= -49.54     fin= -49.54     change= 0.2412E-07
eigenvalue    3 init= -49.09     fin= -49.09     change= 0.2668E-09
eigenvalue    4 init= -49.09     fin= -49.09     change= 0.1864E-09
eigenvalue    5 init= -19.71     fin= -19.71     change= 0.2907E-04
eigenvalue    6 init= -6.534     fin= -6.534     change= 0.1242E-03
eigenvalue    7 init= -5.734     fin= -5.734     change= 0.2157E-04
eigenvalue    8 init= -5.731     fin= -5.731     change= 0.1250E-04
 Checking convergence criteria
 Diagonalising expanded subspace
 Copying updated data back
eigenvalue    1 init= -80.00     fin= -80.00     change= 0.4179E-08
eigenvalue    2 init= -49.54     fin= -49.54     change= 0.2545E-07
eigenvalue    3 init= -49.09     fin= -49.09     change= 0.2690E-09
eigenvalue    4 init= -49.09     fin= -49.09     change= 0.1870E-09
eigenvalue    5 init= -19.71     fin= -19.71     change= 0.3050E-04
eigenvalue    6 init= -6.534     fin= -6.534     change= 0.1316E-03
eigenvalue    7 init= -5.734     fin= -5.734     change= 0.2345E-04
eigenvalue    8 init= -5.731     fin= -5.731     change= 0.1333E-04
 Checking convergence criteria
 Diagonalising expanded subspace
 Copying updated data back
eigenvalue    9 init= -1.857     fin= -1.857     change= 0.1742E-03
eigenvalue   10 init= -1.758     fin= -1.758     change= 0.2419E-04
eigenvalue   11 init= -1.621     fin= -1.622     change= 0.1578E-03
eigenvalue   12 init= -.8832     fin= -.8833     change= 0.4086E-04
eigenvalue   13 init= -.8574     fin= -.8576     change= 0.1497E-03
eigenvalue   14 init= -.9328E-01 fin= -.9357E-01 change= 0.2930E-03
eigenvalue   15 init=  1.634     fin=  1.634     change= 0.8036E-05
eigenvalue   16 init=  1.867     fin=  1.867     change= 0.4654E-05
 Checking convergence criteria
 Diagonalising expanded subspace
 Copying updated data back
eigenvalue    9 init= -1.857     fin= -1.857     change= 0.1917E-03
eigenvalue   10 init= -1.758     fin= -1.758     change= 0.2552E-04
eigenvalue   11 init= -1.621     fin= -1.622     change= 0.1739E-03
eigenvalue   12 init= -.8832     fin= -.8833     change= 0.4668E-04
eigenvalue   13 init= -.8574     fin= -.8576     change= 0.1680E-03
eigenvalue   14 init= -.9328E-01 fin= -.9361E-01 change= 0.3309E-03
eigenvalue   15 init=  1.634     fin=  1.634     change= 0.1059E-04
eigenvalue   16 init=  1.867     fin=  1.867     change= 0.6349E-05
 Checking convergence criteria
 Diagonalising expanded subspace
 Copying updated data back
eigenvalue    9 init= -1.857     fin= -1.857     change= 0.1923E-03
eigenvalue   10 init= -1.758     fin= -1.758     change= 0.2560E-04
eigenvalue   11 init= -1.621     fin= -1.622     change= 0.1748E-03
eigenvalue   12 init= -.8832     fin= -.8833     change= 0.4749E-04
eigenvalue   13 init= -.8574     fin= -.8576     change= 0.1697E-03
eigenvalue   14 init= -.9328E-01 fin= -.9361E-01 change= 0.3327E-03
eigenvalue   15 init=  1.634     fin=  1.634     change= 0.1114E-04
eigenvalue   16 init=  1.867     fin=  1.867     change= 0.6906E-05
 Checking convergence criteria
 Diagonalising expanded subspace
 Copying updated data back
eigenvalue   17 init=  3.141     fin=  3.141     change= 0.3394E-04
 Checking convergence criteria
 Diagonalising expanded subspace
 Copying updated data back
eigenvalue   17 init=  3.141     fin=  3.141     change= 0.4671E-04
 Checking convergence criteria
 Diagonalising expanded subspace
 Copying updated data back
eigenvalue   17 init=  3.141     fin=  3.141     change= 0.5461E-04
 Checking convergence criteria
 no. bands in each block=           8
Kinetic eigenvalue #   1 =     0.37872752E+02
Kinetic eigenvalue #   2 =     0.39259377E+02
Kinetic eigenvalue #   3 =     0.39828243E+02
Kinetic eigenvalue #   4 =     0.39828505E+02
Kinetic eigenvalue #   5 =     0.25173050E+02
Kinetic eigenvalue #   6 =     0.43723010E+02
Kinetic eigenvalue #   7 =     0.37749840E+02
Kinetic eigenvalue #   8 =     0.38728885E+02
Kinetic eigenvalue #   9 =     0.19304159E+02
Kinetic eigenvalue #  10 =     0.31832881E+02
Kinetic eigenvalue #  11 =     0.36757792E+02
Kinetic eigenvalue #  12 =     0.34455454E+02
Kinetic eigenvalue #  13 =     0.39782238E+02
Kinetic eigenvalue #  14 =     0.24529100E+02
Kinetic eigenvalue #  15 =     0.14893019E+02
Kinetic eigenvalue #  16 =     0.89241411E+01
Kinetic eigenvalue #  17 =     0.16019077E+02
 Calculating the R matrix for the precon Sinv operator
 Diagonalising expanded subspace
 Copying updated data back
eigenvalue    1 init= -80.00     fin= -80.00     change= 0.3367E-08
eigenvalue    2 init= -49.54     fin= -49.54     change= 0.2418E-07
eigenvalue    3 init= -49.09     fin= -49.09     change= 0.2363E-09
eigenvalue    4 init= -49.09     fin= -49.09     change= 0.1634E-09
eigenvalue    5 init= -19.71     fin= -19.71     change= 0.2905E-04
eigenvalue    6 init= -6.539     fin= -6.539     change= 0.1251E-03
eigenvalue    7 init= -5.742     fin= -5.742     change= 0.1601E-04
eigenvalue    8 init= -5.675     fin= -5.675     change= 0.9777E-05
 Checking convergence criteria
 Diagonalising expanded subspace
 Copying updated data back
eigenvalue    1 init= -80.00     fin= -80.00     change= 0.3527E-08
eigenvalue    2 init= -49.54     fin= -49.54     change= 0.2553E-07
eigenvalue    3 init= -49.09     fin= -49.09     change= 0.2374E-09
eigenvalue    4 init= -49.09     fin= -49.09     change= 0.1639E-09
eigenvalue    5 init= -19.71     fin= -19.71     change= 0.3070E-04
eigenvalue    6 init= -6.539     fin= -6.539     change= 0.1352E-03
eigenvalue    7 init= -5.742     fin= -5.742     change= 0.1701E-04
eigenvalue    8 init= -5.675     fin= -5.675     change= 0.1023E-04
 Checking convergence criteria
 Diagonalising expanded subspace
 Copying updated data back
eigenvalue    9 init= -2.301     fin= -2.302     change= 0.1686E-03
eigenvalue   10 init= -1.783     fin= -1.783     change= 0.6860E-04
eigenvalue   11 init= -1.574     fin= -1.574     change= 0.6587E-04
eigenvalue   12 init= -.9340     fin= -.9341     change= 0.9685E-04
eigenvalue   13 init= -.7246     fin= -.7246     change= 0.3220E-04
eigenvalue   14 init= -.2741     fin= -.2744     change= 0.3481E-03
eigenvalue   15 init=  1.252     fin=  1.252     change= 0.9918E-05
eigenvalue   16 init=  2.552     fin=  2.552     change= 0.7953E-04
 Checking convergence criteria
 Diagonalising expanded subspace
 Copying updated data back
eigenvalue    9 init= -2.301     fin= -2.302     change= 0.1872E-03
eigenvalue   10 init= -1.783     fin= -1.783     change= 0.7384E-04
eigenvalue   11 init= -1.574     fin= -1.574     change= 0.6965E-04
eigenvalue   12 init= -.9340     fin= -.9342     change= 0.1103E-03
eigenvalue   13 init= -.7246     fin= -.7247     change= 0.3475E-04
eigenvalue   14 init= -.2741     fin= -.2745     change= 0.4028E-03
eigenvalue   15 init=  1.252     fin=  1.252     change= 0.1241E-04
eigenvalue   16 init=  2.552     fin=  2.552     change= 0.1111E-03
 Checking convergence criteria
 Diagonalising expanded subspace
 Copying updated data back
eigenvalue    9 init= -2.301     fin= -2.302     change= 0.1878E-03
eigenvalue   10 init= -1.783     fin= -1.783     change= 0.7384E-04
eigenvalue   11 init= -1.574     fin= -1.574     change= 0.6965E-04
eigenvalue   12 init= -.9340     fin= -.9342     change= 0.1112E-03
eigenvalue   13 init= -.7246     fin= -.7247     change= 0.3485E-04
eigenvalue   14 init= -.2741     fin= -.2745     change= 0.4062E-03
eigenvalue   15 init=  1.252     fin=  1.252     change= 0.1261E-04
eigenvalue   16 init=  2.552     fin=  2.552     change= 0.1173E-03
 Checking convergence criteria
 Diagonalising expanded subspace
 Copying updated data back
eigenvalue   17 init=  4.246     fin=  4.246     change= 0.1033E-05
 Checking convergence criteria
 Diagonalising expanded subspace
 Copying updated data back
eigenvalue   17 init=  4.246     fin=  4.246     change= 0.1942E-05
 Checking convergence criteria
 no. bands in each block=           8
Kinetic eigenvalue #   1 =     0.37872751E+02
Kinetic eigenvalue #   2 =     0.39259377E+02
Kinetic eigenvalue #   3 =     0.39828243E+02
Kinetic eigenvalue #   4 =     0.39828505E+02
Kinetic eigenvalue #   5 =     0.25173050E+02
Kinetic eigenvalue #   6 =     0.43723008E+02
Kinetic eigenvalue #   7 =     0.37749840E+02
Kinetic eigenvalue #   8 =     0.38728884E+02
Kinetic eigenvalue #   9 =     0.19304442E+02
Kinetic eigenvalue #  10 =     0.31832881E+02
Kinetic eigenvalue #  11 =     0.36757791E+02
Kinetic eigenvalue #  12 =     0.34455446E+02
Kinetic eigenvalue #  13 =     0.39782223E+02
Kinetic eigenvalue #  14 =     0.24529668E+02
Kinetic eigenvalue #  15 =     0.14893033E+02
Kinetic eigenvalue #  16 =     0.89240129E+01
Kinetic eigenvalue #  17 =     0.16026346E+02
 Calculating the R matrix for the precon Sinv operator
 Diagonalising expanded subspace
 Copying updated data back
eigenvalue    1 init= -80.00     fin= -80.00     change= 0.3366E-08
eigenvalue    2 init= -49.54     fin= -49.54     change= 0.2419E-07
eigenvalue    3 init= -49.09     fin= -49.09     change= 0.2364E-09
eigenvalue    4 init= -49.09     fin= -49.09     change= 0.1628E-09
eigenvalue    5 init= -19.71     fin= -19.71     change= 0.2906E-04
eigenvalue    6 init= -6.539     fin= -6.539     change= 0.1251E-03
eigenvalue    7 init= -5.742     fin= -5.742     change= 0.1602E-04
eigenvalue    8 init= -5.675     fin= -5.675     change= 0.9712E-05
 Checking convergence criteria
 Diagonalising expanded subspace
 Copying updated data back
eigenvalue    1 init= -80.00     fin= -80.00     change= 0.3525E-08
eigenvalue    2 init= -49.54     fin= -49.54     change= 0.2554E-07
eigenvalue    3 init= -49.09     fin= -49.09     change= 0.2375E-09
eigenvalue    4 init= -49.09     fin= -49.09     change= 0.1633E-09
eigenvalue    5 init= -19.71     fin= -19.71     change= 0.3071E-04
eigenvalue    6 init= -6.539     fin= -6.539     change= 0.1352E-03
eigenvalue    7 init= -5.742     fin= -5.742     change= 0.1702E-04
eigenvalue    8 init= -5.675     fin= -5.675     change= 0.1016E-04
 Checking convergence criteria
 Diagonalising expanded subspace
 Copying updated data back
eigenvalue    9 init= -2.301     fin= -2.302     change= 0.1680E-03
eigenvalue   10 init= -1.783     fin= -1.783     change= 0.6877E-04
eigenvalue   11 init= -1.574     fin= -1.574     change= 0.6585E-04
eigenvalue   12 init= -.9340     fin= -.9341     change= 0.9659E-04
eigenvalue   13 init= -.7246     fin= -.7246     change= 0.3190E-04
eigenvalue   14 init= -.2741     fin= -.2744     change= 0.3500E-03
eigenvalue   15 init=  1.252     fin=  1.252     change= 0.9768E-05
eigenvalue   16 init=  2.552     fin=  2.552     change= 0.7935E-04
 Checking convergence criteria
 Diagonalising expanded subspace
 Copying updated data back
eigenvalue    9 init= -2.301     fin= -2.302     change= 0.1863E-03
eigenvalue   10 init= -1.783     fin= -1.783     change= 0.7391E-04
eigenvalue   11 init= -1.574     fin= -1.574     change= 0.6963E-04
eigenvalue   12 init= -.9340     fin= -.9342     change= 0.1099E-03
eigenvalue   13 init= -.7246     fin= -.7247     change= 0.3443E-04
eigenvalue   14 init= -.2741     fin= -.2745     change= 0.4041E-03
eigenvalue   15 init=  1.252     fin=  1.252     change= 0.1218E-04
eigenvalue   16 init=  2.552     fin=  2.552     change= 0.1094E-03
 Checking convergence criteria
 Diagonalising expanded subspace
 Copying updated data back
eigenvalue    9 init= -2.301     fin= -2.302     change= 0.1869E-03
eigenvalue   10 init= -1.783     fin= -1.783     change= 0.7392E-04
eigenvalue   11 init= -1.574     fin= -1.574     change= 0.6963E-04
eigenvalue   12 init= -.9340     fin= -.9342     change= 0.1112E-03
eigenvalue   13 init= -.7246     fin= -.7247     change= 0.3449E-04
eigenvalue   14 init= -.2741     fin= -.2745     change= 0.4078E-03
eigenvalue   15 init=  1.252     fin=  1.252     change= 0.1247E-04
eigenvalue   16 init=  2.552     fin=  2.552     change= 0.1162E-03
 Checking convergence criteria
 Diagonalising expanded subspace
 Copying updated data back
eigenvalue   17 init=  4.246     fin=  4.246     change= 0.9939E-06
 Checking convergence criteria
 no. bands in each block=           8
Kinetic eigenvalue #   1 =     0.37872810E+02
Kinetic eigenvalue #   2 =     0.39259389E+02
Kinetic eigenvalue #   3 =     0.39828255E+02
Kinetic eigenvalue #   4 =     0.39828260E+02
Kinetic eigenvalue #   5 =     0.25186721E+02
Kinetic eigenvalue #   6 =     0.43805574E+02
Kinetic eigenvalue #   7 =     0.37875726E+02
Kinetic eigenvalue #   8 =     0.37953623E+02
Kinetic eigenvalue #   9 =     0.36819317E+02
Kinetic eigenvalue #  10 =     0.32265597E+02
Kinetic eigenvalue #  11 =     0.22439552E+02
Kinetic eigenvalue #  12 =     0.36089907E+02
Kinetic eigenvalue #  13 =     0.36345377E+02
Kinetic eigenvalue #  14 =     0.23975518E+02
Kinetic eigenvalue #  15 =     0.13729851E+02
Kinetic eigenvalue #  16 =     0.14861414E+02
Kinetic eigenvalue #  17 =     0.80823873E+01
 Calculating the R matrix for the precon Sinv operator
 Diagonalising expanded subspace
 Copying updated data back
eigenvalue    1 init= -80.00     fin= -80.00     change= 0.4027E-08
eigenvalue    2 init= -49.54     fin= -49.54     change= 0.2410E-07
eigenvalue    3 init= -49.09     fin= -49.09     change= 0.2666E-09
eigenvalue    4 init= -49.09     fin= -49.09     change= 0.1861E-09
eigenvalue    5 init= -19.71     fin= -19.71     change= 0.2896E-04
eigenvalue    6 init= -6.534     fin= -6.534     change= 0.1234E-03
eigenvalue    7 init= -5.734     fin= -5.734     change= 0.2164E-04
eigenvalue    8 init= -5.731     fin= -5.731     change= 0.1250E-04
 Checking convergence criteria
 Diagonalising expanded subspace
 Copying updated data back
eigenvalue    1 init= -80.00     fin= -80.00     change= 0.4237E-08
eigenvalue    2 init= -49.54     fin= -49.54     change= 0.2547E-07
eigenvalue    3 init= -49.09     fin= -49.09     change= 0.2689E-09
eigenvalue    4 init= -49.09     fin= -49.09     change= 0.1868E-09
eigenvalue    5 init= -19.71     fin= -19.71     change= 0.3048E-04
eigenvalue    6 init= -6.534     fin= -6.534     change= 0.1313E-03
eigenvalue    7 init= -5.734     fin= -5.734     change= 0.2357E-04
eigenvalue    8 init= -5.731     fin= -5.731     change= 0.1333E-04
 Checking convergence criteria
 Diagonalising expanded subspace
 Copying updated data back
eigenvalue    9 init= -1.857     fin= -1.857     change= 0.1746E-03
eigenvalue   10 init= -1.758     fin= -1.758     change= 0.2419E-04
eigenvalue   11 init= -1.621     fin= -1.622     change= 0.1583E-03
eigenvalue   12 init= -.8832     fin= -.8833     change= 0.4085E-04
eigenvalue   13 init= -.8574     fin= -.8576     change= 0.1498E-03
eigenvalue   14 init= -.9328E-01 fin= -.9357E-01 change= 0.2947E-03
eigenvalue   15 init=  1.634     fin=  1.634     change= 0.7658E-05
eigenvalue   16 init=  1.867     fin=  1.867     change= 0.4643E-05
 Checking convergence criteria
 Diagonalising expanded subspace
 Copying updated data back
eigenvalue    9 init= -1.857     fin= -1.857     change= 0.1915E-03
eigenvalue   10 init= -1.758     fin= -1.758     change= 0.2552E-04
eigenvalue   11 init= -1.621     fin= -1.622     change= 0.1737E-03
eigenvalue   12 init= -.8832     fin= -.8833     change= 0.4669E-04
eigenvalue   13 init= -.8574     fin= -.8576     change= 0.1682E-03
eigenvalue   14 init= -.9328E-01 fin= -.9361E-01 change= 0.3308E-03
eigenvalue   15 init=  1.634     fin=  1.634     change= 0.9801E-05
eigenvalue   16 init=  1.867     fin=  1.867     change= 0.6336E-05
 Checking convergence criteria
 Diagonalising expanded subspace
 Copying updated data back
eigenvalue    9 init= -1.857     fin= -1.857     change= 0.1915E-03
eigenvalue   10 init= -1.758     fin= -1.758     change= 0.2560E-04
eigenvalue   11 init= -1.621     fin= -1.622     change= 0.1737E-03
eigenvalue   12 init= -.8832     fin= -.8833     change= 0.4750E-04
eigenvalue   13 init= -.8574     fin= -.8576     change= 0.1682E-03
eigenvalue   14 init= -.9328E-01 fin= -.9361E-01 change= 0.3308E-03
eigenvalue   15 init=  1.634     fin=  1.634     change= 0.9801E-05
eigenvalue   16 init=  1.867     fin=  1.867     change= 0.6890E-05
 Checking convergence criteria
 Diagonalising expanded subspace
 Copying updated data back
eigenvalue   17 init=  3.141     fin=  3.141     change= 0.2980E-04
 Checking convergence criteria
 Diagonalising expanded subspace
 Copying updated data back
eigenvalue   17 init=  3.141     fin=  3.141     change= 0.4413E-04
 Checking convergence criteria
 Diagonalising expanded subspace
 Copying updated data back
eigenvalue   17 init=  3.141     fin=  3.141     change= 0.5162E-04
 Checking convergence criteria
 no. bands in each block=           8
Kinetic eigenvalue #   1 =     0.37872752E+02
Kinetic eigenvalue #   2 =     0.39259377E+02
Kinetic eigenvalue #   3 =     0.39828243E+02
Kinetic eigenvalue #   4 =     0.39828505E+02
Kinetic eigenvalue #   5 =     0.25173050E+02
Kinetic eigenvalue #   6 =     0.43723007E+02
Kinetic eigenvalue #   7 =     0.37749840E+02
Kinetic eigenvalue #   8 =     0.38728886E+02
Kinetic eigenvalue #   9 =     0.19304417E+02
Kinetic eigenvalue #  10 =     0.31832909E+02
Kinetic eigenvalue #  11 =     0.36757792E+02
Kinetic eigenvalue #  12 =     0.34455431E+02
Kinetic eigenvalue #  13 =     0.39782232E+02
Kinetic eigenvalue #  14 =     0.24529650E+02
Kinetic eigenvalue #  15 =     0.14893062E+02
Kinetic eigenvalue #  16 =     0.89240042E+01
Kinetic eigenvalue #  17 =     0.16012492E+02
 Calculating the R matrix for the precon Sinv operator
 Diagonalising expanded subspace
 Copying updated data back
eigenvalue    1 init= -80.00     fin= -80.00     change= 0.3366E-08
eigenvalue    2 init= -49.54     fin= -49.54     change= 0.2418E-07
eigenvalue    3 init= -49.09     fin= -49.09     change= 0.2361E-09
eigenvalue    4 init= -49.09     fin= -49.09     change= 0.1640E-09
eigenvalue    5 init= -19.71     fin= -19.71     change= 0.2904E-04
eigenvalue    6 init= -6.539     fin= -6.539     change= 0.1250E-03
eigenvalue    7 init= -5.742     fin= -5.742     change= 0.1601E-04
eigenvalue    8 init= -5.675     fin= -5.675     change= 0.9824E-05
 Checking convergence criteria
 Diagonalising expanded subspace
 Copying updated data back
eigenvalue    1 init= -80.00     fin= -80.00     change= 0.3526E-08
eigenvalue    2 init= -49.54     fin= -49.54     change= 0.2553E-07
eigenvalue    3 init= -49.09     fin= -49.09     change= 0.2372E-09
eigenvalue    4 init= -49.09     fin= -49.09     change= 0.1646E-09
eigenvalue    5 init= -19.71     fin= -19.71     change= 0.3069E-04
eigenvalue    6 init= -6.539     fin= -6.539     change= 0.1351E-03
eigenvalue    7 init= -5.742     fin= -5.742     change= 0.1701E-04
eigenvalue    8 init= -5.675     fin= -5.675     change= 0.1029E-04
 Checking convergence criteria
 Diagonalising expanded subspace
 Copying updated data back
eigenvalue    9 init= -2.301     fin= -2.302     change= 0.1676E-03
eigenvalue   10 init= -1.783     fin= -1.783     change= 0.6873E-04
eigenvalue   11 init= -1.574     fin= -1.574     change= 0.6589E-04
eigenvalue   12 init= -.9340     fin= -.9341     change= 0.9629E-04
eigenvalue   13 init= -.7246     fin= -.7246     change= 0.3235E-04
eigenvalue   14 init= -.2741     fin= -.2744     change= 0.3488E-03
eigenvalue   15 init=  1.252     fin=  1.252     change= 0.9760E-05
eigenvalue   16 init=  2.552     fin=  2.552     change= 0.7876E-04
 Checking convergence criteria
 Diagonalising expanded subspace
 Copying updated data back
eigenvalue    9 init= -2.301     fin= -2.302     change= 0.1862E-03
eigenvalue   10 init= -1.783     fin= -1.783     change= 0.7389E-04
eigenvalue   11 init= -1.574     fin= -1.574     change= 0.6966E-04
eigenvalue   12 init= -.9340     fin= -.9342     change= 0.1098E-03
eigenvalue   13 init= -.7246     fin= -.7247     change= 0.3506E-04
eigenvalue   14 init= -.2741     fin= -.2745     change= 0.4037E-03
eigenvalue   15 init=  1.252     fin=  1.252     change= 0.1223E-04
eigenvalue   16 init=  2.552     fin=  2.552     change= 0.1091E-03
 Checking convergence criteria
 Diagonalising expanded subspace
 Copying updated data back
eigenvalue    9 init= -2.301     fin= -2.302     change= 0.1868E-03
eigenvalue   10 init= -1.783     fin= -1.783     change= 0.7389E-04
eigenvalue   11 init= -1.574     fin= -1.574     change= 0.6967E-04
eigenvalue   12 init= -.9340     fin= -.9342     change= 0.1111E-03
eigenvalue   13 init= -.7246     fin= -.7247     change= 0.3512E-04
eigenvalue   14 init= -.2741     fin= -.2745     change= 0.4075E-03
eigenvalue   15 init=  1.252     fin=  1.252     change= 0.1251E-04
eigenvalue   16 init=  2.552     fin=  2.552     change= 0.1161E-03
 Checking convergence criteria
 Diagonalising expanded subspace
 Copying updated data back
eigenvalue   17 init=  4.246     fin=  4.246     change= 0.1066E-05
 Checking convergence criteria
 Diagonalising expanded subspace
 Copying updated data back
eigenvalue   17 init=  4.246     fin=  4.246     change= 0.2180E-05
 Checking convergence criteria
 Diagonalising expanded subspace
 Copying updated data back
eigenvalue   17 init=  4.246     fin=  4.246     change= 0.2701E-05
 Checking convergence criteria
(Entering electronic_find_fermi_fix)
Smearing occupancies with Gaussians
Spin: 1, Min eigenvalue: -8.4755E+001 eV, Max eigenvalue:  3.4437E+000 eV
Fermi energy for up electrons = -2.9642E+000 eV [lower bound; range =  1.96E-014 eV]
Spin: 2, Min eigenvalue: -8.0796E+001 eV, Max eigenvalue:  5.0459E+000 eV
Fermi energy for down electrons = -3.0439E+000 eV [lower bound; range =  1.91E-014 eV]
(Leaving electronic_find_fermi_fix)
NB material has an apparent band gap of  1.3052E+000eV for spin up electrons.
NB material has an apparent band gap of  3.3736E+000eV for spin down electrons.
Calculating KE and non-local eigenvalues to find total energy
 
End of SCF cycle energies
Exchange-correlation energy      =      -499.07913191541501874 eV
+Hartree energy                  =      2055.86480228865912068 eV
+Local pseudopotential energy    =     -5072.04198973965321784 eV
----------------------------------
Potential energy (total)         =     -3511.74021244959249088 eV
                                  
+Hubbard U energy                =         2.40000000000000036 eV
+Kinetic energy                  =       776.40015656180526094 eV
+Non-local energy                =       148.88800589585559919 eV
+Electronic entropy term (-TS)   =        -0.00123492181832541 eV
+Ewald energy (const)            =      -774.85607651874397561 eV
+non-Coulombic energy (const)    =        13.80612138473854067 eV
----------------------------------
Total free energy (E-TS)         =     -3345.10324004775611684 eV
 
NB est. 0K energy (E-0.5TS)      =     -3345.10262258684679182 eV
 
(XC correction to eigenvalue sum =        44.01690523340165129 eV)
(Hubbard U correction to eigenvalu         0.00000003000000000 eV)
 
      1  -3.34510324E+003 -2.99457235E+000   6.88098885E-002      17.71  <-- SCF
 Calculate new overlap and Hubbard U matrix
 Density matrix in cubic harmonics:
     1.0000     0.0000     0.0000     0.0000     0.0000
     0.0000     0.0000     0.0000     0.0000     0.0000
     0.0000     0.0000     0.0000     0.0000     0.0000
     0.0000     0.0000     0.0000     0.0000     0.0000
     0.0000     0.0000     0.0000     0.0000     0.0000
     0.0000     0.0000     0.0000     0.0000     0.0000
     0.0000     0.0000     0.0000     1.0000     0.0000
     0.0000     0.0000     0.0000     0.0000     0.0000
     0.0000     0.0000     0.0000     0.0000     1.0000
     0.0000     0.0000     0.0000     0.0000     0.0000
 Hermiticity:        (-4.44089209850062616E-016,0.0000000000000000)
 Density matrix in cubic harmonics:
     1.0000     0.0000     0.0000     0.0000     0.0000
     0.0000     0.0000     0.0000     0.0000     0.0000
     0.0000     0.0000     0.0000     0.0000     0.0000
     0.0000     0.0000     0.0000     0.0000     0.0000
     0.0000     0.0000     0.0000     0.0000     0.0000
     0.0000     0.0000     0.0000     0.0000     0.0000
     0.0000     0.0000     0.0000     1.0000     0.0000
     0.0000     0.0000     0.0000     0.0000     0.0000
     0.0000     0.0000     0.0000     0.0000     1.0000
     0.0000     0.0000     0.0000     0.0000     0.0000
 Hermiticity:        (-4.44089209850062616E-016,0.0000000000000000)
 Density matrix in cubic harmonics:
     0.9375     0.0000    -0.0000     0.1079    -0.0000
     0.0000     0.0000     0.0000     0.0000     0.0000
     0.0000     0.9996    -0.0000    -0.0000    -0.0000
     0.0000     0.0000     0.0000     0.0000     0.0000
    -0.0000    -0.0000     0.9761     0.0000    -0.0000
     0.0000     0.0000     0.0000     0.0000     0.0000
     0.1079    -0.0000     0.0000     0.8129     0.0000
     0.0000     0.0000     0.0000     0.0000     0.0000
    -0.0000    -0.0000    -0.0000     0.0000     0.9761
     0.0000     0.0000     0.0000     0.0000     0.0000
 Hermiticity:              (0.23438640222397034,0.0000000000000000)
 Density matrix in cubic harmonics:
     0.0806     0.0000     0.0000    -0.1395    -0.0000
     0.0000     0.0000     0.0000     0.0000     0.0000
     0.0000     0.0000    -0.0000    -0.0000     0.0000
     0.0000     0.0000     0.0000     0.0000     0.0000
     0.0000    -0.0000     0.2843    -0.0000     0.0000
     0.0000     0.0000     0.0000     0.0000     0.0000
    -0.1395    -0.0000    -0.0000     0.2417     0.0000
     0.0000     0.0000     0.0000     0.0000     0.0000
    -0.0000     0.0000     0.0000     0.0000     0.2843
     0.0000     0.0000     0.0000     0.0000     0.0000
 Hermiticity:              (0.62548451883228684,0.0000000000000000)
  Hubbard energy diff= -0.16266155468913920      eV <-- Hubbard_U
  ----------- Hubbard U: New occupation matrix calculated: --------------------
   2.2373384453108609      eV <= Edirect

     Hubbard U occupation numbers
     ----------------------------
Species   Ion   l  spin               occupancies
==================================================================
  Mn       1    2   up:   0.75  0.98  0.98  1.00  1.00
                    dn:   0.00  0.00  0.28  0.28  0.32
==================================================================

 Only the high frequencies of the density were mixed in this cycle 
Symmetrising density
Calculating local potential
Calculating Hubbard U potential
 Density matrix in cubic harmonics:
     1.0000     0.0000     0.0000     0.0000     0.0000
     0.0000     0.0000     0.0000     0.0000     0.0000
     0.0000     0.0000     0.0000     0.0000     0.0000
     0.0000     0.0000     0.0000     0.0000     0.0000
     0.0000     0.0000     0.0000     0.0000     0.0000
     0.0000     0.0000     0.0000     0.0000     0.0000
     0.0000     0.0000     0.0000     1.0000     0.0000
     0.0000     0.0000     0.0000     0.0000     0.0000
     0.0000     0.0000     0.0000     0.0000     1.0000
     0.0000     0.0000     0.0000     0.0000     0.0000
 Hermiticity:        (-4.44089209850062616E-016,0.0000000000000000)
 Density matrix in cubic harmonics:
     1.0000     0.0000     0.0000     0.0000     0.0000
     0.0000     0.0000     0.0000     0.0000     0.0000
     0.0000     0.0000     0.0000     0.0000     0.0000
     0.0000     0.0000     0.0000     0.0000     0.0000
     0.0000     0.0000     0.0000     0.0000     0.0000
     0.0000     0.0000     0.0000     0.0000     0.0000
     0.0000     0.0000     0.0000     1.0000     0.0000
     0.0000     0.0000     0.0000     0.0000     0.0000
     0.0000     0.0000     0.0000     0.0000     1.0000
     0.0000     0.0000     0.0000     0.0000     0.0000
 Hermiticity:        (-4.44089209850062616E-016,0.0000000000000000)
Calculating non-local weights
Starting SCF cycle     2 of up to    30
 no. bands in each block=           8
Kinetic eigenvalue #   1 =     0.38349112E+02
Kinetic eigenvalue #   2 =     0.39990488E+02
Kinetic eigenvalue #   3 =     0.39990493E+02
Kinetic eigenvalue #   4 =     0.39595345E+02
Kinetic eigenvalue #   5 =     0.25074066E+02
Kinetic eigenvalue #   6 =     0.42485209E+02
Kinetic eigenvalue #   7 =     0.37556513E+02
Kinetic eigenvalue #   8 =     0.37585110E+02
Kinetic eigenvalue #   9 =     0.37896081E+02
Kinetic eigenvalue #  10 =     0.37444592E+02
Kinetic eigenvalue #  11 =     0.22388432E+02
Kinetic eigenvalue #  12 =     0.37966682E+02
Kinetic eigenvalue #  13 =     0.38112382E+02
Kinetic eigenvalue #  14 =     0.25286896E+02
Kinetic eigenvalue #  15 =     0.13831257E+02
Kinetic eigenvalue #  16 =     0.14471986E+02
Kinetic eigenvalue #  17 =     0.77598840E+01
 Diagonalising expanded subspace
 Copying updated data back
eigenvalue    1 init= -83.96     fin= -83.96     change= 0.1354E-08
eigenvalue    2 init= -53.14     fin= -53.14     change= 0.1584E-10
eigenvalue    3 init= -53.14     fin= -53.14     change= 0.1485E-10
eigenvalue    4 init= -52.98     fin= -52.98     change= 0.5858E-10
eigenvalue    5 init= -20.17     fin= -20.17     change= 0.8189E-07
eigenvalue    6 init= -7.474     fin= -7.474     change= 0.9633E-06
eigenvalue    7 init= -6.991     fin= -6.991     change= 0.2552E-06
eigenvalue    8 init= -6.990     fin= -6.990     change= 0.3100E-06
 Checking convergence criteria
 Diagonalising expanded subspace
 Copying updated data back
eigenvalue    9 init= -5.451     fin= -5.451     change= 0.2824E-07
eigenvalue   10 init= -5.280     fin= -5.280     change= 0.2286E-07
eigenvalue   11 init= -4.138     fin= -4.138     change= 0.1142E-05
eigenvalue   12 init= -3.497     fin= -3.497     change= 0.1758E-06
eigenvalue   13 init= -3.470     fin= -3.470     change= 0.4357E-06
eigenvalue   14 init= -1.710     fin= -1.710     change= 0.1980E-05
eigenvalue   15 init= 0.3085     fin= 0.3085     change= 0.1983E-06
eigenvalue   16 init= 0.4393     fin= 0.4393     change= 0.5393E-07
 Checking convergence criteria
 Diagonalising expanded subspace
 Copying updated data back
eigenvalue    9 init= -5.451     fin= -5.451     change= 0.2824E-07
eigenvalue   10 init= -5.280     fin= -5.280     change= 0.2476E-07
eigenvalue   11 init= -4.138     fin= -4.138     change= 0.1470E-05
eigenvalue   12 init= -3.497     fin= -3.497     change= 0.1758E-06
eigenvalue   13 init= -3.470     fin= -3.470     change= 0.5336E-06
eigenvalue   14 init= -1.710     fin= -1.710     change= 0.2688E-05
eigenvalue   15 init= 0.3085     fin= 0.3085     change= 0.2604E-06
eigenvalue   16 init= 0.4393     fin= 0.4393     change= 0.5393E-07
 Checking convergence criteria
 Diagonalising expanded subspace
 Copying updated data back
eigenvalue   17 init=  2.644     fin=  2.644     change= 0.5763E-06
 Checking convergence criteria
 no. bands in each block=           8
Kinetic eigenvalue #   1 =     0.38349090E+02
Kinetic eigenvalue #   2 =     0.39990480E+02
Kinetic eigenvalue #   3 =     0.39990668E+02
Kinetic eigenvalue #   4 =     0.39595337E+02
Kinetic eigenvalue #   5 =     0.25059735E+02
Kinetic eigenvalue #   6 =     0.42425183E+02
Kinetic eigenvalue #   7 =     0.37489651E+02
Kinetic eigenvalue #   8 =     0.38016899E+02
Kinetic eigenvalue #   9 =     0.37400914E+02
Kinetic eigenvalue #  10 =     0.37721031E+02
Kinetic eigenvalue #  11 =     0.19391172E+02
Kinetic eigenvalue #  12 =     0.37134207E+02
Kinetic eigenvalue #  13 =     0.40881037E+02
Kinetic eigenvalue #  14 =     0.26067495E+02
Kinetic eigenvalue #  15 =     0.13801041E+02
Kinetic eigenvalue #  16 =     0.81408074E+01
Kinetic eigenvalue #  17 =     0.17190066E+02
 Diagonalising expanded subspace
 Copying updated data back
eigenvalue    1 init= -83.96     fin= -83.96     change= 0.1421E-08
eigenvalue    2 init= -53.14     fin= -53.14     change= 0.1535E-10
eigenvalue    3 init= -53.14     fin= -53.14     change= 0.1496E-10
eigenvalue    4 init= -52.98     fin= -52.98     change= 0.4713E-10
eigenvalue    5 init= -20.18     fin= -20.18     change= 0.6217E-07
eigenvalue    6 init= -7.478     fin= -7.478     change= 0.7248E-06
eigenvalue    7 init= -6.995     fin= -6.995     change= 0.2637E-06
eigenvalue    8 init= -6.958     fin= -6.958     change= 0.1134E-06
 Checking convergence criteria
 Diagonalising expanded subspace
 Copying updated data back
eigenvalue    9 init= -5.483     fin= -5.483     change= 0.7601E-08
eigenvalue   10 init= -5.263     fin= -5.263     change= 0.1051E-07
eigenvalue   11 init= -4.403     fin= -4.403     change= 0.3504E-06
eigenvalue   12 init= -3.518     fin= -3.518     change= 0.2303E-06
eigenvalue   13 init= -3.366     fin= -3.366     change= 0.1217E-06
eigenvalue   14 init= -1.890     fin= -1.890     change= 0.6408E-06
eigenvalue   15 init= -.5542E-01 fin= -.5542E-01 change= 0.9407E-07
eigenvalue   16 init=  2.030     fin=  2.030     change= 0.7077E-06
 Checking convergence criteria
 Diagonalising expanded subspace
 Copying updated data back
eigenvalue   17 init=  2.486     fin=  2.486     change= 0.8906E-07
 Checking convergence criteria
 no. bands in each block=           8
Kinetic eigenvalue #   1 =     0.38349100E+02
Kinetic eigenvalue #   2 =     0.39990480E+02
Kinetic eigenvalue #   3 =     0.39990668E+02
Kinetic eigenvalue #   4 =     0.39595337E+02
Kinetic eigenvalue #   5 =     0.25059721E+02
Kinetic eigenvalue #   6 =     0.42425084E+02
Kinetic eigenvalue #   7 =     0.37489616E+02
Kinetic eigenvalue #   8 =     0.38016877E+02
Kinetic eigenvalue #   9 =     0.37400912E+02
Kinetic eigenvalue #  10 =     0.37721031E+02
Kinetic eigenvalue #  11 =     0.19391201E+02
Kinetic eigenvalue #  12 =     0.37134353E+02
Kinetic eigenvalue #  13 =     0.40881127E+02
Kinetic eigenvalue #  14 =     0.26067561E+02
Kinetic eigenvalue #  15 =     0.13801100E+02
Kinetic eigenvalue #  16 =     0.81405148E+01
Kinetic eigenvalue #  17 =     0.17189765E+02
 Diagonalising expanded subspace
 Copying updated data back
eigenvalue    1 init= -83.96     fin= -83.96     change= 0.1351E-08
eigenvalue    2 init= -53.14     fin= -53.14     change= 0.1529E-10
[...]
Spin 1, kpoint ( 0.250000 -0.333333  0.333333 ) weight = 0.111111
+--------+-------------------+----------------+
|  Band  |   Eigenvalue      |    Occupancy   |                   <- occ
+--------+-------------------+----------------+                   <- occ
|     8  |   -.707778E+01    |   1.00000      |                   <- occ
|     9  |   -.570322E+01    |   1.00000      |                   <- occ
|    10  |   -.552858E+01    |   1.00000      |                   <- occ
|    11  |   -.425752E+01    |   1.00000      |                   <- occ
|    12  |   -.360837E+01    |  0.999853      |                   <- occ
|    13  |   -.358315E+01    |  0.999712      |                   <- occ
|    14  |   -.180478E+01    |   0.00000      |                   <- occ
|    15  |   0.262113E+00    |   0.00000      |                   <- occ
+--------+-------------------+----------------+                   <- occ
Spin 2, kpoint (-0.250000 -0.333333 -0.333333 ) weight = 0.111111
+--------+-------------------+----------------+
|  Band  |   Eigenvalue      |    Occupancy   |                   <- occ
+--------+-------------------+----------------+                   <- occ
|     8  |   -.576387E+01    |   1.00000      |                   <- occ
|     9  |   -.197245E+01    |  0.943690E-15  |                   <- occ
|    10  |   -.196625E+01    |  0.666134E-15  |                   <- occ
|    11  |   -.182195E+01    |   0.00000      |                   <- occ
|    12  |   -.105087E+01    |   0.00000      |                   <- occ
|    13  |   -.102673E+01    |   0.00000      |                   <- occ
|    14  |   -.200488E+00    |   0.00000      |                   <- occ
|    15  |   0.158180E+01    |   0.00000      |                   <- occ
+--------+-------------------+----------------+                   <- occ
Spin 2, kpoint (-0.250000  0.000000 -0.333333 ) weight = 0.111111
+--------+-------------------+----------------+
|  Band  |   Eigenvalue      |    Occupancy   |                   <- occ
+--------+-------------------+----------------+                   <- occ
|     8  |   -.570876E+01    |   1.00000      |                   <- occ
|     9  |   -.240397E+01    |  0.489468E-06  |                   <- occ
|    10  |   -.198228E+01    |  0.166533E-14  |                   <- occ
|    11  |   -.178076E+01    |   0.00000      |                   <- occ
|    12  |   -.109720E+01    |   0.00000      |                   <- occ
|    13  |   -.899891E+00    |   0.00000      |                   <- occ
|    14  |   -.386269E+00    |   0.00000      |                   <- occ
|    15  |   0.119555E+01    |   0.00000      |                   <- occ
+--------+-------------------+----------------+                   <- occ
Spin 2, kpoint (-0.250000  0.000000  0.333333 ) weight = 0.111111
+--------+-------------------+----------------+
|  Band  |   Eigenvalue      |    Occupancy   |                   <- occ
+--------+-------------------+----------------+                   <- occ
|     8  |   -.570876E+01    |   1.00000      |                   <- occ
|     9  |   -.240397E+01    |  0.489468E-06  |                   <- occ
|    10  |   -.198228E+01    |  0.166533E-14  |                   <- occ
|    11  |   -.178076E+01    |   0.00000      |                   <- occ
|    12  |   -.109720E+01    |   0.00000      |                   <- occ
|    13  |   -.899891E+00    |   0.00000      |                   <- occ
|    14  |   -.386269E+00    |   0.00000      |                   <- occ
|    15  |   0.119555E+01    |   0.00000      |                   <- occ
+--------+-------------------+----------------+                   <- occ
Spin 2, kpoint (-0.250000  0.333333  0.333333 ) weight = 0.111111
+--------+-------------------+----------------+
|  Band  |   Eigenvalue      |    Occupancy   |                   <- occ
+--------+-------------------+----------------+                   <- occ
|     8  |   -.576387E+01    |   1.00000      |                   <- occ
|     9  |   -.197245E+01    |  0.943690E-15  |                   <- occ
|    10  |   -.196625E+01    |  0.666134E-15  |                   <- occ
|    11  |   -.182195E+01    |   0.00000      |                   <- occ
|    12  |   -.105087E+01    |   0.00000      |                   <- occ
|    13  |   -.102673E+01    |   0.00000      |                   <- occ
|    14  |   -.200488E+00    |   0.00000      |                   <- occ
|    15  |   0.158180E+01    |   0.00000      |                   <- occ
+--------+-------------------+----------------+                   <- occ
Spin 2, kpoint ( 0.250000  0.333333  0.000000 ) weight = 0.111111
+--------+-------------------+----------------+
|  Band  |   Eigenvalue      |    Occupancy   |                   <- occ
+--------+-------------------+----------------+                   <- occ
|     8  |   -.570876E+01    |   1.00000      |                   <- occ
|     9  |   -.240397E+01    |  0.489475E-06  |                   <- occ
|    10  |   -.198228E+01    |  0.166533E-14  |                   <- occ
|    11  |   -.178076E+01    |   0.00000      |                   <- occ
|    12  |   -.109720E+01    |   0.00000      |                   <- occ
|    13  |   -.899891E+00    |   0.00000      |                   <- occ
|    14  |   -.386269E+00    |   0.00000      |                   <- occ
|    15  |   0.119555E+01    |   0.00000      |                   <- occ
+--------+-------------------+----------------+                   <- occ
Spin 2, kpoint (-0.250000 -0.333333  0.333333 ) weight = 0.111111
+--------+-------------------+----------------+
|  Band  |   Eigenvalue      |    Occupancy   |                   <- occ
+--------+-------------------+----------------+                   <- occ
|     8  |   -.576387E+01    |   1.00000      |                   <- occ
|     9  |   -.197245E+01    |  0.943690E-15  |                   <- occ
|    10  |   -.196625E+01    |  0.666134E-15  |                   <- occ
|    11  |   -.182195E+01    |   0.00000      |                   <- occ
|    12  |   -.105087E+01    |   0.00000      |                   <- occ
|    13  |   -.102673E+01    |   0.00000      |                   <- occ
|    14  |   -.200488E+00    |   0.00000      |                   <- occ
|    15  |   0.158180E+01    |   0.00000      |                   <- occ
+--------+-------------------+----------------+                   <- occ
Spin 2, kpoint (-0.250000  0.000000  0.000000 ) weight = 0.111111
+--------+-------------------+----------------+
|  Band  |   Eigenvalue      |    Occupancy   |                   <- occ
+--------+-------------------+----------------+                   <- occ
|     8  |   -.571295E+01    |   1.00000      |                   <- occ
|     9  |   -.281464E+01    |  0.231869E-01  |                   <- occ
|    10  |   -.206768E+01    |  0.174805E-12  |                   <- occ
|    11  |   -.175299E+01    |   0.00000      |                   <- occ
|    12  |   -.913527E+00    |   0.00000      |                   <- occ
|    13  |   -.913526E+00    |   0.00000      |                   <- occ
|    14  |   -.582618E+00    |   0.00000      |                   <- occ
|    15  |   0.190967E+01    |   0.00000      |                   <- occ
+--------+-------------------+----------------+                   <- occ
Spin 2, kpoint (-0.250000  0.333333  0.000000 ) weight = 0.111111
+--------+-------------------+----------------+
|  Band  |   Eigenvalue      |    Occupancy   |                   <- occ
+--------+-------------------+----------------+                   <- occ
|     8  |   -.570876E+01    |   1.00000      |                   <- occ
|     9  |   -.240397E+01    |  0.489475E-06  |                   <- occ
|    10  |   -.198228E+01    |  0.166533E-14  |                   <- occ
|    11  |   -.178076E+01    |   0.00000      |                   <- occ
|    12  |   -.109720E+01    |   0.00000      |                   <- occ
|    13  |   -.899891E+00    |   0.00000      |                   <- occ
|    14  |   -.386269E+00    |   0.00000      |                   <- occ
|    15  |   0.119555E+01    |   0.00000      |                   <- occ
+--------+-------------------+----------------+                   <- occ
Spin 2, kpoint ( 0.250000 -0.333333  0.333333 ) weight = 0.111111
+--------+-------------------+----------------+
|  Band  |   Eigenvalue      |    Occupancy   |                   <- occ
+--------+-------------------+----------------+                   <- occ
|     8  |   -.576387E+01    |   1.00000      |                   <- occ
|     9  |   -.197245E+01    |  0.943690E-15  |                   <- occ
|    10  |   -.196625E+01    |  0.666134E-15  |                   <- occ
|    11  |   -.182195E+01    |   0.00000      |                   <- occ
|    12  |   -.105087E+01    |   0.00000      |                   <- occ
|    13  |   -.102673E+01    |   0.00000      |                   <- occ
|    14  |   -.200488E+00    |   0.00000      |                   <- occ
|    15  |   0.158180E+01    |   0.00000      |                   <- occ
+--------+-------------------+----------------+                   <- occ
  achieved Hubbard U energy convergence:   4.1203053672556056E-006
Have a nice day.

Writing analysis data to MnO.castep_bin

Writing model to MnO.check
                            Ewald force:
Species #   1 Atom #   1 Fx: 483.919     Fy:0.185030E-13 Fz:0.185420E-13 eV/A
Species #   2 Atom #   1 Fx:-483.919     Fy:-.184017E-13 Fz:-.185483E-13 eV/A

 Pseudo atomic calculation performed for O 2s2 2p4

 Converged in 24 iterations to a total energy of -431.0932 eV

 Pseudo atomic calculation performed for Mn 3s2 3p6 3d5 4s2

 Converged in 38 iterations to a total energy of -2902.3718 eV
  Accepting available Hubbard U occ matrix: 

     Hubbard U occupation numbers
     ----------------------------
Species   Ion   l  spin               occupancies
==================================================================
  Mn       1    2   up:   0.77  0.98  0.98  1.00  1.00
                    dn:  -0.00  0.00  0.30  0.30  0.33
==================================================================

 Density matrix in cubic harmonics:
     0.9423    -0.0000     0.0000     0.0996    -0.0000
     0.0000     0.0000     0.0000     0.0000     0.0000
    -0.0000     0.9998     0.0000     0.0000     0.0000
     0.0000     0.0000     0.0000     0.0000     0.0000
     0.0000     0.0000     0.9780    -0.0000     0.0000
     0.0000     0.0000     0.0000     0.0000     0.0000
     0.0996     0.0000    -0.0000     0.8273     0.0000
     0.0000     0.0000     0.0000     0.0000     0.0000
    -0.0000     0.0000     0.0000     0.0000     0.9780
     0.0000     0.0000     0.0000     0.0000     0.0000
 Hermiticity:              (0.22071569042408512,0.0000000000000000)
 Density matrix in cubic harmonics:
     0.0838    -0.0000     0.0000    -0.1449    -0.0000
     0.0000     0.0000     0.0000     0.0000     0.0000
    -0.0000     0.0000     0.0000     0.0000     0.0000
     0.0000     0.0000     0.0000     0.0000     0.0000
     0.0000     0.0000     0.3012    -0.0000    -0.0000
     0.0000     0.0000     0.0000     0.0000     0.0000
    -0.1449     0.0000    -0.0000     0.2511    -0.0000
     0.0000     0.0000     0.0000     0.0000     0.0000
    -0.0000     0.0000    -0.0000    -0.0000     0.3012
     0.0000     0.0000     0.0000     0.0000     0.0000
 Hermiticity:              (0.64377723063136538,0.0000000000000000)
Hubbard U energy: Ha   =    0.083239831340
Hubbard U forces Ha/A    1     7.747877115931    4.724315314592    4.724315314592    0.000000000001    0.000000000000   -0.000000000000
Hubbard U forces Ha/A    2     4.724315314592    4.724315314592    4.724315314592   -0.000000000047    0.000000000000    0.000000000000
  achieved Hubbard U energy convergence:   7.3498644949913272E-007

 *********************** Ewald forces ***********************
 *                                                          *
 *               Cartesian components (eV/A)                *
 * -------------------------------------------------------- *
 *                         x            y            z      *
 *                                                          *
 * O               1    483.91934      0.00000      0.00000 *
 * Mn              1   -483.91934     -0.00000     -0.00000 *
 *                                                          *
 ************************************************************

 ****************** Local potential forces ******************
 *                                                          *
 *               Cartesian components (eV/A)                *
 * -------------------------------------------------------- *
 *                         x            y            z      *
 *                                                          *
 * O               1   -453.65094      0.00000      0.00000 *
 * Mn              1    496.57703     -0.00000     -0.00000 *
 *                                                          *
 ************************************************************

 **************** Non-local potential forces ****************
 *                                                          *
 *               Cartesian components (eV/A)                *
 * -------------------------------------------------------- *
 *                         x            y            z      *
 *                                                          *
 * O               1    -29.90085      0.00001      0.00000 *
 * Mn              1    -13.20568      0.00000      0.00000 *
 *                                                          *
 ************************************************************

 ************** External Efield and/or dipole ***************
 *                                                          *
 *               Cartesian components (eV/A)                *
 * -------------------------------------------------------- *
 *                         x            y            z      *
 *                                                          *
 * O               1      0.00000      0.00000      0.00000 *
 * Mn              1      0.00000      0.00000      0.00000 *
 *                                                          *
 ************************************************************

 ***************** DM correction to forces ******************
 *                                                          *
 *               Cartesian components (eV/A)                *
 * -------------------------------------------------------- *
 *                         x            y            z      *
 *                                                          *
 * O               1      0.00000      0.00000      0.00000 *
 * Mn              1      0.00000      0.00000      0.00000 *
 *                                                          *
 ************************************************************

 ***************** Hubbard potential forces *****************
 *                                                          *
 *               Cartesian components (eV/A)                *
 * -------------------------------------------------------- *
 *                         x            y            z      *
 *                                                          *
 * O               1      0.00000      0.00000     -0.00000 *
 * Mn              1     -0.00000      0.00000      0.00000 *
 *                                                          *
 ************************************************************

 ************************** Forces **************************
 *                                                          *
 *               Cartesian components (eV/A)                *
 * -------------------------------------------------------- *
 *                         x            y            z      *
 *                                                          *
 * O               1      0.45777      0.00001      0.00000 *
 * Mn              1     -0.45777     -0.00001     -0.00000 *
 *                                                          *
 ************************************************************

 Pseudo atomic calculation performed for O 2s2 2p4

 Converged in 24 iterations to a total energy of -431.0932 eV

 Pseudo atomic calculation performed for Mn 3s2 3p6 3d5 4s2

 Converged in 38 iterations to a total energy of -2902.3718 eV
Charge spilling parameter for spin component 1 = 0.19%
Charge spilling parameter for spin component 2 = 0.17%

                   Orbital Populations                  
  ---------------------------------------------------------------
     Ion    Atom   Orbital              Up        Down      Spin
  ---------------------------------------------------------------
      O     1      S                    0.963     0.960     0.003
      O     1      Px                   0.657     0.746    -0.089
      O     1      Py                   0.895     0.742     0.153
      O     1      Pz                   0.895     0.742     0.153
     Mn     1      S                    0.999     1.000    -0.001
     Mn     1      Px                   0.998     0.998    -0.000
     Mn     1      Py                   1.000     1.000     0.000
     Mn     1      Pz                   1.000     1.000     0.000
     Mn     1      Dzz                  0.925     0.063     0.862
     Mn     1      Dzy                  1.000    -0.000     1.000
     Mn     1      Dzx                  0.970     0.234     0.735
     Mn     1      Dxx-yy               0.775     0.190     0.585
     Mn     1      Dxy                  0.970     0.234     0.735
     Mn     1      S                    0.632     0.023     0.609
     Mn     1      Px                   0.043     0.022     0.020
     Mn     1      Py                   0.138     0.024     0.114
     Mn     1      Pz                   0.138     0.024     0.114
  ---------------------------------------------------------------
                           Total:      12.997     8.003     4.995
  ---------------------------------------------------------------
The total projected populations are: spin up   12.997   0.000, spin down    8.003   0.000, total   21.000   0.000

     Atomic Populations (Mulliken)
     -----------------------------
Species          Ion Spin      s      p      d      f     Total  Charge(e)   Spin(hbar/2)
=========================================================================================
  O               1   up:     0.96   2.45   0.00   0.00   3.41    -0.60        0.22
                  1   dn:     0.96   2.23   0.00   0.00   3.19
  Mn              1   up:     1.63   3.32   4.64   0.00   9.59     0.60        4.77
                  1   dn:     1.02   3.07   0.72   0.00   4.81
=========================================================================================

                 Bond                   Population        Spin       Length (A)
================================================================================
               O 1 -- Mn 1                   0.65        -0.03          1.60000
================================================================================


Writing analysis data to MnO.castep_bin

Writing model to MnO.check
Initialisation time =     14.85 s
Calculation time    =     18.76 s
Finalisation time   =      0.12 s
Total time          =     33.73 s
Peak Memory Use     = 519280 kB
  
Overall parallel efficiency rating: Good (77%)                                  
  
Data was distributed by:-
k-point (2-way); efficiency rating: Good (78%)                                  
  
Parallel notes:
1) Calculation only took 33.6 s, so efficiency estimates may be inaccurate.     
2) k-points were not fully distributed, there were 5 k-points per process.      
  
Efficiencies are estimated from the ratio of communication time to total time,
and do not include all the effects of serial operations or load imbalance.
