 +-------------------------------------------------+
 |                                                 |
 |      CCC   AA    SSS  TTTTT  EEEEE  PPPP        |
 |     C     A  A  S       T    E      P   P       |
 |     C     AAAA   SS     T    EEE    PPPP        |
 |     C     A  A     S    T    E      P           |
 |      CCC  A  A  SSS     T    EEEEE  P           |
 |                                                 |
 +-------------------------------------------------+
 |                                                 |
 | Welcome to Academic Release CASTEP version 19.11|          
 | Ab Initio Total Energy Program                  |
 |                                                 |
 | Authors:                                        |
 | M. Segall, M. Probert, C. Pickard, P. Hasnip,   |
 | S. Clark, K. Refson, J. R. Yates, M. Payne      |
 |                                                 |
 | Contributors:                                   |
 | P. Lindan, P. Haynes, J. White, V. Milman,      |
 | N. Govind, M. Gibson, P. Tulip, V. Cocula,      |
 | B. Montanari, D. Quigley, M. Glover,            |
 | L. Bernasconi, A. Perlov, M. Plummer,           |
 | E. McNellis, J. Meyer, J. Gale, D. Jochym       |
 | J. Aarons, B. Walker, R. Gillen, D. Jones       |
 | T. Green, I. J. Bush, C. J. Armstrong,          |
 | E. J. Higgins, E. L. Brown, M. S. McFly,        |
 | J. Wilkins, B-C. Shih, P. J. P. Byrne           |
 |                                                 |
 | Copyright (c) 2000 - 2018                       |
 |                                                 |
 |     Distributed under the terms of an           |
 |     Agreement between the United Kingdom        |
 |     Car-Parrinello (UKCP) Consortium,           |
 |     Daresbury Laboratory and Accelrys, Inc.     |
 |                                                 |
 | Please cite                                     |
 |                                                 |
 |     "First principles methods using CASTEP"     |
 |                                                 |
 |         Zeitschrift fuer Kristallographie       |
 |           220(5-6) pp. 567-570 (2005)           |
 |                                                 |
 | S. J. Clark, M. D. Segall, C. J. Pickard,       |
 | P. J. Hasnip, M. J. Probert, K. Refson,         |
 | M. C. Payne                                     |
 |                                                 |
 |       in all publications arising from          |
 |              your use of CASTEP                 |
 |                                                 |
 +-------------------------------------------------+
 |                                                 |
 |              http://www.castep.org              |
 |                                                 |
 +-------------------------------------------------+



 Compiled for linux_x86_64_gfortran7.0 on Mon, 30 Mar 2020 12:17:21 +0100
 from code version e1fe0d666396+ Castep191_branch Thu, 24 Oct 2019 13:54:03 +0100
 Compiler: GNU Fortran 7.5.0; Optimisation: fast
 MATHLIBS: Intel MKL(2019.0.5) (LAPACK version 3.7.0)
 FFT Lib : mkl
 Fundamental constants values: CODATA 2014

 Run started: Wed, 04 Nov 2020 19:32:02 +0000

 ******************************* User Parameters *******************************
iprint              : 3          # verbosity control (I)
reuse               : base.check # reuse filename (S)
writebib            : F          # output BibTeX references (L)
writeotfg           : F          # output OTFG files (L)
writecstesp         : F          # output cst_esp file (L)
spin                : 5.0000000  # net spin (R)
spinpolarised       : T          # spin polarised (L)
%block develcode    :            # developers code (B)
iprintu=8,
%endblock develcode :            # developers code (B)

 *******************************************************************************
  

 Atomic calculation performed for O: 1s2 2s2 2p4

 Converged in 60 iterations to an ae energy of -2027.926 eV


 Atomic calculation performed for Mn: 1s2 2s2 2p6 3s2 3p6 3d5 4s2

 Converged in 96 iterations to an ae energy of -31460.102 eV


 Pseudo atomic calculation performed for O 2s2 2p4

 Converged in 24 iterations to a total energy of -431.0932 eV

 Pseudo atomic calculation performed for Mn 3s2 3p6 3d5 4s2

 Converged in 38 iterations to a total energy of -2902.3718 eV
Initialising basis set.

Standard grid dimensions:  48  36  36
Fine grid dimensions:      48  36  36

Plane wave load balancing: max   5869 min   5847 average   5864
True cut-off energy of basis :  22.996
 Reusing data from model file base.check
 Number of symmetry ops  =           1

 ******************************* User Parameters *******************************
iprint              : 3          # verbosity control (I)
reuse               : base.check # reuse filename (S)
writebib            : F          # output BibTeX references (L)
writeotfg           : F          # output OTFG files (L)
writecstesp         : F          # output cst_esp file (L)
spin                : 5.0000000  # net spin (R)
spinpolarised       : T          # spin polarised (L)
%block develcode    :            # developers code (B)
iprintu=8,
%endblock develcode :            # developers code (B)

 *******************************************************************************
  

 Atomic calculation performed for O: 1s2 2s2 2p4

 Converged in 60 iterations to an ae energy of -2027.926 eV


 Atomic calculation performed for Mn: 1s2 2s2 2p6 3s2 3p6 3d5 4s2

 Converged in 96 iterations to an ae energy of -31460.102 eV


 Pseudo atomic calculation performed for O 2s2 2p4

 Converged in 24 iterations to a total energy of -431.0932 eV

 Pseudo atomic calculation performed for Mn 3s2 3p6 3d5 4s2

 Converged in 38 iterations to a total energy of -2902.3718 eV
Initialising basis set.

Standard grid dimensions:  48  36  36
Fine grid dimensions:      48  36  36

Plane wave load balancing: max   5869 min   5847 average   5864
True cut-off energy of basis :  22.996
K-point set unchanged, read in wavefunction.
Reusing density from model file.
 Calculation parallelised over 2 processes.
 Data is distributed by k-point(2-way)

 ************************************ Title ************************************
 

 ***************************** General Parameters ******************************
  
 output verbosity                               : extreme (3)
 reusing                                        : base.check
 write checkpoint data to                       : MnO.check
 type of calculation                            : single point energy
 stress calculation                             : off
 density difference calculation                 : off
 electron localisation func (ELF) calculation   : off
 Hirshfeld analysis                             : off
 unlimited duration calculation
 timing information                             : on
 memory usage estimate                          : on
 write extra output files                       : on
 write final potential to formatted file        : off
 write final density to formatted file          : off
 write BibTeX reference list                    : off
 write OTFG pseudopotential files               : off
 write electrostatic potential file             : off
 write bands file                               : on
 checkpoint writing                             : both castep_bin and check files
  
 output         length unit                     : A
 output           mass unit                     : amu
 output           time unit                     : ps
 output         charge unit                     : e
 output           spin unit                     : hbar/2
 output         energy unit                     : eV
 output          force unit                     : eV/A
 output       velocity unit                     : A/ps
 output       pressure unit                     : GPa
 output     inv_length unit                     : 1/A
 output      frequency unit                     : cm-1
 output force constant unit                     : eV/A**2
 output         volume unit                     : A**3
 output   IR intensity unit                     : (D/A)**2/amu
 output         dipole unit                     : D
 output         efield unit                     : eV/A/e
 output        entropy unit                     : J/mol/K
  
 wavefunctions paging                           : none
 random number generator seed                   : randomised (193208675)
 data distribution                              : optimal for this architecture
 optimization strategy                          : balance speed and memory

 *********************** Exchange-Correlation Parameters ***********************
  
 using functional                               : Local Density Approximation
 relativistic treatment                         : Koelling-Harmon
 DFT+D: Semi-empirical dispersion correction    : off

 ************************* Pseudopotential Parameters **************************
  
 pseudopotential representation                 : reciprocal space
 <beta|phi> representation                      : reciprocal space
 spin-orbit coupling                            : off

 **************************** Basis Set Parameters *****************************
  
 basis set accuracy                             : FINE
 plane wave basis set cut-off                   :   625.8619   eV
 size of standard grid                          :     1.7500
 size of   fine   gmax                          :    22.4293   1/A
 largest prime factor in FFT                    :          5
 finite basis set correction                    : none

 **************************** Electronic Parameters ****************************
  
 number of  electrons                           :  21.00    
 net charge of system                           :  0.000    
 net spin   of system                           :  5.000    
 number of  up  spins                           :  13.00    
 number of down spins                           :  8.000    
 treating system as spin-polarized
 number of bands                                :         17

 ********************* Electronic Minimization Parameters **********************
  
 Method: Treating system as metallic with density mixing treatment of electrons,
         and number of  SD  steps               :          1
         and number of  CG  steps               :          4
  
 total energy / atom convergence tol.           : 0.1000E-04   eV
 eigen-energy convergence tolerance             : 0.1000E-05   eV
 max force / atom convergence tol.              : ignored
 convergence tolerance window                   :          3   cycles
 max. number of SCF cycles                      :         30
 number of fixed-spin iterations                :         10
 smearing scheme                                : Gaussian
 smearing width                                 : 0.2000       eV
 Fermi energy convergence tolerance             : 0.2721E-13   eV
 periodic dipole correction                     : NONE

 ************************** Density Mixing Parameters **************************
  
 density-mixing scheme                          : Broyden
 max. length of mixing history                  :         20
 charge density mixing amplitude                : 0.8000    
   spin density mixing amplitude                :  2.000    
 charge density mixing g-vector                 :  1.500       1/A
   spin density mixing g-vector                 :  1.500       1/A

 *********************** Population Analysis Parameters ************************
  
 Population analysis with cutoff                :  3.000       A
 Population analysis output                     : summary and pdos components

 ******************************* Developer Code ********************************
  
 iprintu=8,

 *******************************************************************************
  

                           -------------------------------
                                      Unit Cell
                           -------------------------------
        Real Lattice(A)                      Reciprocal Lattice(1/A)
     6.6000000     0.0000000     0.0000000        0.951997774   0.000000000   0.000000000
     0.0000000     5.0000000     0.0000000        0.000000000   1.256637061   0.000000000
     0.0000000     0.0000000     5.0000000        0.000000000   0.000000000   1.256637061

                       Lattice parameters(A)       Cell Angles
                    a =      6.600000          alpha =   90.000000
                    b =      5.000000          beta  =   90.000000
                    c =      5.000000          gamma =   90.000000

                       Current cell volume =           165.000000       A**3
                                   density =             0.429924   AMU/A**3
                                           =             0.713905     g/cm^3

                           -------------------------------
                                     Cell Contents
                           -------------------------------
                         Total number of ions in cell =    2
                      Total number of species in cell =    2
                        Max number of any one species =    1

            xxxxxxxxxxxxxxxxxxxxxxxxxxxxxxxxxxxxxxxxxxxxxxxxxxxxxxxxxxxx
            x  Element    Atom        Fractional coordinates of atoms  x
            x            Number           u          v          w      x
            x----------------------------------------------------------x
            x  O            1         0.621212   0.500000   0.500000   x 
            x  Mn           1         0.378788   0.500000   0.500000   x 
            xxxxxxxxxxxxxxxxxxxxxxxxxxxxxxxxxxxxxxxxxxxxxxxxxxxxxxxxxxxx


                         No user defined ionic velocities

                           -------------------------------
                                   Details of Species
                           -------------------------------

                               Mass of species in AMU
                                    O   15.9994000
                                    Mn   54.9380500

                          Electric Quadrupole Moment (Barn)
                                    O   -0.0255800 Isotope 17
                                    Mn    0.3300000 Isotope 55


         Quantisation axis:    0.00000   0.00000   1.00000

         Units for Hubbard U values are eV
         xxxxxxxxxxxxxxxxxxxxxxxxxxxxxxxxxxxxxxxxxxxxxxxxxxxxxxxxxxxxxxxxxxxx
         |  Element     Atom     Hubbard U   values by orbital type         |
         |             Number      s          p          d          f       |
         |------------------------------------------------------------------|
         |O             1         0.00000    0.00000    0.00000    0.00000  |
         |Mn            1         0.00000    0.00000    0.00000    0.00000  |
         xxxxxxxxxxxxxxxxxxxxxxxxxxxxxxxxxxxxxxxxxxxxxxxxxxxxxxxxxxxxxxxxxxxx


                          Files used for pseudopotentials:
                                    O 2|1.1|17|20|23|20:21(qc=8)
                                    Mn 3|1.8|1.8|0.6|12|14|16|30U:40:31:32(qc=7)

                           -------------------------------
                              k-Points For BZ Sampling
                           -------------------------------
                       MP grid size for SCF calculation is  2  3  3
                            with an offset of   0.000  0.000  0.000
                       Number of kpoints used =             9

             +++++++++++++++++++++++++++++++++++++++++++++++++++++++
             +  Number       Fractional coordinates        Weight  +
             +-----------------------------------------------------+
             +     1  -0.250000  -0.333333  -0.333333   0.1111111  +
             +     2  -0.250000  -0.333333   0.333333   0.1111111  +
             +     3  -0.250000   0.000000  -0.333333   0.1111111  +
             +     4  -0.250000   0.000000   0.000000   0.1111111  +
             +     5  -0.250000   0.000000   0.333333   0.1111111  +
             +     6  -0.250000   0.333333   0.000000   0.1111111  +
             +     7  -0.250000   0.333333   0.333333   0.1111111  +
             +     8   0.250000  -0.333333   0.333333   0.1111111  +
             +     9   0.250000   0.333333   0.000000   0.1111111  +
             +++++++++++++++++++++++++++++++++++++++++++++++++++++++

                           -------------------------------
                               Symmetry and Constraints
                           -------------------------------

                      Maximum deviation from symmetry =  0.00000         ANG

                      Number of symmetry operations   =           1
                      Number of ionic constraints     =           3
                      Point group of crystal =     1: C1, 1, 1
                      Space group of crystal =    99: P4mm, P 4 -2

                    1 rotation    
                 (   1.00000000000   0.00000000000   0.00000000000 )
                 (   0.00000000000   1.00000000000   0.00000000000 )
                 (   0.00000000000   0.00000000000   1.00000000000 )
                    1 displacement
                 (   0.00000000000   0.00000000000   0.00000000000 )
                      symmetry related atoms: 
             O:    1
             Mn:    1


                         Centre of mass is constrained

            xxxxxxxxxxxxxxxxxxxxxxxxxxxxxxxxxxxxxxxxxxxxxxxxxxxxxxxxxxxxxx....
            x  Species       atom   co-ordinate  constraints.....         
            x-------------------------------------------------------------....
            x O                 1       x        29165.1220      0.0000      0.0000
            x O                 1       y            0.0000  29165.1220      0.0000
            x O                 1       z            0.0000      0.0000  29165.1220
            x Mn                1       x       100145.9388      0.0000      0.0000
            x Mn                1       y            0.0000 100145.9388      0.0000
            x Mn                1       z            0.0000      0.0000 100145.9388
            xxxxxxxxxxxxxxxxxxxxxxxxxxxxxxxxxxxxxxxxxxxxxxxxxxxxxxxxxxxxxx....

                         Number of cell constraints= 0
                         Cell constraints are:  1 2 3 4 5 6

                         External pressure/stress (GPa)
                          0.00000   0.00000   0.00000
                                    0.00000   0.00000
                                              0.00000
Density mixing plane wave load balancing: max      0 min      0 average      0
  
+---------------- MEMORY AND SCRATCH DISK ESTIMATES PER PROCESS --------------+
|                                                     Memory          Disk    |
| Baseline code, static data and system overhead      354.0 MB         0.0 MB |
| BLAS internal memory storage                          0.0 MB         0.0 MB |
| Model and support data                               67.2 MB       110.4 MB |
| Electronic energy minimisation requirements          51.6 MB         0.0 MB |
| Force calculation requirements                       13.8 MB         0.0 MB |
|                                               ----------------------------- |
| Approx. total storage required per process          472.8 MB       110.4 MB |
|                                                                             |
| Requirements will fluctuate during execution and may exceed these estimates |
+-----------------------------------------------------------------------------+
Calculating total energy with cut-off of  625.862 eV.
electronic_minimisation: Initialising

 Pseudo atomic calculation performed for O 2s2 2p4

 Converged in 24 iterations to a total energy of -431.0932 eV

 Pseudo atomic calculation performed for Mn 3s2 3p6 3d5 4s2

 Converged in 38 iterations to a total energy of -2902.3718 eV
  Initializing Hubbard U occ matrix: 

     Hubbard U occupation numbers
     ----------------------------
Species   Ion   l  spin               occupancies
==================================================================
  Mn       1    2   up:   0.00  0.00  1.00  1.00  1.00
                    dn:   0.00  0.00  1.00  1.00  1.00
==================================================================

electronic_minimisation: Initialising density mixing
 Initialising mixing density basis set.
Density mixing plane wave load balancing: max   5871 min   5871 average   5871
Calculating Ewald energy for ionic configuration
              Ewald: real-space energy =     359.826811 eV
        Ewald: reciprocal-space energy =      93.920754 eV
         Ewald: (sum_charge)**2 Energy =     459.468501 eV
         Ewald: (sum_charge**2) Energy =     769.135141 eV
                          Ewald Energy =    -774.856077 eV
Calculating non-Coulombic energy for ionic configuration
Symmetrising density
Calculating local potential
Calculating Hubbard U potential
 Density matrix in cubic harmonics:
     1.0000     0.0000     0.0000     0.0000     0.0000
     0.0000     0.0000     0.0000     0.0000     0.0000
     0.0000     0.0000     0.0000     0.0000     0.0000
     0.0000     0.0000     0.0000     0.0000     0.0000
     0.0000     0.0000     0.0000     0.0000     0.0000
     0.0000     0.0000     0.0000     0.0000     0.0000
     0.0000     0.0000     0.0000     1.0000     0.0000
     0.0000     0.0000     0.0000     0.0000     0.0000
     0.0000     0.0000     0.0000     0.0000     1.0000
     0.0000     0.0000     0.0000     0.0000     0.0000
 Hermiticity:        (-4.44089209850062616E-016,0.0000000000000000)
 Density matrix in cubic harmonics:
     1.0000     0.0000     0.0000     0.0000     0.0000
     0.0000     0.0000     0.0000     0.0000     0.0000
     0.0000     0.0000     0.0000     0.0000     0.0000
     0.0000     0.0000     0.0000     0.0000     0.0000
     0.0000     0.0000     0.0000     0.0000     0.0000
     0.0000     0.0000     0.0000     0.0000     0.0000
     0.0000     0.0000     0.0000     1.0000     0.0000
     0.0000     0.0000     0.0000     0.0000     0.0000
     0.0000     0.0000     0.0000     0.0000     1.0000
     0.0000     0.0000     0.0000     0.0000     0.0000
 Hermiticity:        (-4.44089209850062616E-016,0.0000000000000000)
Calculating non-local weights
Calculating KE and non-local eigenvalues to find total energy
 
Init
Exchange-correlation energy      =      -499.07913191541501874 eV
+Hartree energy                  =      2055.86480228865912068 eV
+Local pseudopotential energy    =     -5072.04198973965321784 eV
----------------------------------
Potential energy (total)         =     -3515.25631936638410480 eV
                                  
+Hubbard U energy                =         0.95999999999999996 eV
+Kinetic energy                  =       776.91409201055114409 eV
+Non-local energy                =       152.02656221898419631 eV
+Electronic entropy term (-TS)   =         0.00000000000000000 eV
+Ewald energy (const)            =      -774.85607651874397561 eV
+non-Coulombic energy (const)    =        13.80612138473854067 eV
----------------------------------
Total free energy (E-TS)         =     -3346.40562027085388763 eV
 
NB est. 0K energy (E-0.5TS)      =     -3346.40562027085388763 eV
 
(XC correction to eigenvalue sum =        44.01690523340165129 eV)
(Hubbard U correction to eigenvalu         0.00000003000000000 eV)
 
------------------------------------------------------------------------ <-- SCF
SCF loop      Energy           Fermi           Energy gain       Timer   <-- SCF
                               energy          per atom          (sec)   <-- SCF
------------------------------------------------------------------------ <-- SCF
Initial  -3.34640562E+003  0.00000000E+000                        14.49  <-- SCF
Starting SCF cycle     1 of up to    30
 no. bands in each block=           8
Kinetic eigenvalue #   1 =     0.38348966E+02
Kinetic eigenvalue #   2 =     0.39990483E+02
Kinetic eigenvalue #   3 =     0.39990481E+02
Kinetic eigenvalue #   4 =     0.39595183E+02
Kinetic eigenvalue #   5 =     0.25112526E+02
Kinetic eigenvalue #   6 =     0.42186730E+02
Kinetic eigenvalue #   7 =     0.37391956E+02
Kinetic eigenvalue #   8 =     0.37412407E+02
Kinetic eigenvalue #   9 =     0.37900587E+02
Kinetic eigenvalue #  10 =     0.37455926E+02
Kinetic eigenvalue #  11 =     0.23372304E+02
Kinetic eigenvalue #  12 =     0.38336692E+02
Kinetic eigenvalue #  13 =     0.38452582E+02
Kinetic eigenvalue #  14 =     0.24719286E+02
Kinetic eigenvalue #  15 =     0.13655775E+02
Kinetic eigenvalue #  16 =     0.14273377E+02
Kinetic eigenvalue #  17 =     0.77296045E+01
 Calculating the R matrix for the precon Sinv operator
 Diagonalising expanded subspace
 Copying updated data back
eigenvalue    1 init= -83.96     fin= -83.96     change= 0.2190E-08
eigenvalue    2 init= -53.14     fin= -53.14     change= 0.4843E-10
eigenvalue    3 init= -53.14     fin= -53.14     change= 0.4445E-10
eigenvalue    4 init= -52.98     fin= -52.98     change= 0.1366E-08
eigenvalue    5 init= -20.20     fin= -20.20     change= 0.2745E-05
eigenvalue    6 init= -7.574     fin= -7.574     change= 0.1900E-04
eigenvalue    7 init= -7.131     fin= -7.131     change= 0.3719E-05
eigenvalue    8 init= -7.130     fin= -7.130     change= 0.3662E-05
 Checking convergence criteria
 Diagonalising expanded subspace
 Copying updated data back
eigenvalue    1 init= -83.96     fin= -83.96     change= 0.2204E-08
eigenvalue    2 init= -53.14     fin= -53.14     change= 0.4865E-10
eigenvalue    3 init= -53.14     fin= -53.14     change= 0.4453E-10
eigenvalue    4 init= -52.98     fin= -52.98     change= 0.1447E-08
eigenvalue    5 init= -20.20     fin= -20.20     change= 0.2895E-05
eigenvalue    6 init= -7.574     fin= -7.574     change= 0.2028E-04
eigenvalue    7 init= -7.131     fin= -7.131     change= 0.4023E-05
eigenvalue    8 init= -7.130     fin= -7.130     change= 0.3953E-05
 Checking convergence criteria
 Diagonalising expanded subspace
 Copying updated data back
eigenvalue    9 init= -5.690     fin= -5.690     change= 0.9450E-07
eigenvalue   10 init= -5.521     fin= -5.521     change= 0.4411E-06
eigenvalue   11 init= -4.198     fin= -4.198     change= 0.1205E-04
eigenvalue   12 init= -3.591     fin= -3.591     change= 0.3071E-05
eigenvalue   13 init= -3.564     fin= -3.564     change= 0.5247E-05
eigenvalue   14 init= -1.754     fin= -1.754     change= 0.1169E-04
eigenvalue   15 init= 0.3040     fin= 0.3040     change= 0.5534E-06
eigenvalue   16 init= 0.4344     fin= 0.4344     change= 0.2285E-06
 Checking convergence criteria
 Diagonalising expanded subspace
 Copying updated data back
eigenvalue    9 init= -5.690     fin= -5.690     change= 0.9473E-07
eigenvalue   10 init= -5.521     fin= -5.521     change= 0.4553E-06
eigenvalue   11 init= -4.198     fin= -4.198     change= 0.1327E-04
eigenvalue   12 init= -3.591     fin= -3.591     change= 0.3437E-05
eigenvalue   13 init= -3.564     fin= -3.564     change= 0.5791E-05
eigenvalue   14 init= -1.754     fin= -1.754     change= 0.1323E-04
eigenvalue   15 init= 0.3040     fin= 0.3040     change= 0.7442E-06
eigenvalue   16 init= 0.4344     fin= 0.4344     change= 0.2697E-06
 Checking convergence criteria
 Diagonalising expanded subspace
 Copying updated data back
eigenvalue   17 init=  2.642     fin=  2.642     change= 0.9546E-06
 Checking convergence criteria
 no. bands in each block=           8
Kinetic eigenvalue #   1 =     0.38348939E+02
Kinetic eigenvalue #   2 =     0.39990472E+02
Kinetic eigenvalue #   3 =     0.39990660E+02
Kinetic eigenvalue #   4 =     0.39595175E+02
Kinetic eigenvalue #   5 =     0.25099043E+02
Kinetic eigenvalue #   6 =     0.42122292E+02
Kinetic eigenvalue #   7 =     0.37333011E+02
Kinetic eigenvalue #   8 =     0.37797759E+02
Kinetic eigenvalue #   9 =     0.37459158E+02
Kinetic eigenvalue #  10 =     0.37726085E+02
Kinetic eigenvalue #  11 =     0.20289061E+02
Kinetic eigenvalue #  12 =     0.37545413E+02
Kinetic eigenvalue #  13 =     0.41168583E+02
Kinetic eigenvalue #  14 =     0.25570923E+02
Kinetic eigenvalue #  15 =     0.13556301E+02
Kinetic eigenvalue #  16 =     0.80528776E+01
Kinetic eigenvalue #  17 =     0.17119358E+02
 Calculating the R matrix for the precon Sinv operator
 Diagonalising expanded subspace
 Copying updated data back
eigenvalue    1 init= -83.96     fin= -83.96     change= 0.2340E-08
eigenvalue    2 init= -53.14     fin= -53.14     change= 0.4623E-10
eigenvalue    3 init= -53.14     fin= -53.14     change= 0.4394E-10
eigenvalue    4 init= -52.98     fin= -52.98     change= 0.1226E-08
eigenvalue    5 init= -20.20     fin= -20.20     change= 0.2460E-05
eigenvalue    6 init= -7.578     fin= -7.578     change= 0.1703E-04
eigenvalue    7 init= -7.135     fin= -7.135     change= 0.3967E-05
eigenvalue    8 init= -7.100     fin= -7.100     change= 0.2159E-05
 Checking convergence criteria
 Diagonalising expanded subspace
 Copying updated data back
eigenvalue    1 init= -83.96     fin= -83.96     change= 0.2369E-08
eigenvalue    2 init= -53.14     fin= -53.14     change= 0.4639E-10
eigenvalue    3 init= -53.14     fin= -53.14     change= 0.4399E-10
eigenvalue    4 init= -52.98     fin= -52.98     change= 0.1299E-08
eigenvalue    5 init= -20.20     fin= -20.20     change= 0.2588E-05
eigenvalue    6 init= -7.578     fin= -7.578     change= 0.1815E-04
eigenvalue    7 init= -7.135     fin= -7.135     change= 0.4275E-05
eigenvalue    8 init= -7.100     fin= -7.100     change= 0.2292E-05
 Checking convergence criteria
 Diagonalising expanded subspace
 Copying updated data back
eigenvalue    9 init= -5.723     fin= -5.723     change= 0.1640E-06
eigenvalue   10 init= -5.503     fin= -5.503     change= 0.2947E-06
eigenvalue   11 init= -4.456     fin= -4.456     change= 0.9750E-05
eigenvalue   12 init= -3.611     fin= -3.611     change= 0.4331E-05
eigenvalue   13 init= -3.461     fin= -3.461     change= 0.1684E-05
eigenvalue   14 init= -1.941     fin= -1.941     change= 0.1174E-04
eigenvalue   15 init= -.6120E-01 fin= -.6120E-01 change= 0.6381E-06
eigenvalue   16 init=  2.026     fin=  2.026     change= 0.2522E-05
 Checking convergence criteria
 Diagonalising expanded subspace
 Copying updated data back
eigenvalue    9 init= -5.723     fin= -5.723     change= 0.1686E-06
eigenvalue   10 init= -5.503     fin= -5.503     change= 0.2956E-06
eigenvalue   11 init= -4.456     fin= -4.456     change= 0.1089E-04
eigenvalue   12 init= -3.611     fin= -3.611     change= 0.4840E-05
eigenvalue   13 init= -3.461     fin= -3.461     change= 0.1810E-05
eigenvalue   14 init= -1.941     fin= -1.941     change= 0.1355E-04
eigenvalue   15 init= -.6120E-01 fin= -.6120E-01 change= 0.8420E-06
eigenvalue   16 init=  2.026     fin=  2.026     change= 0.4002E-05
 Checking convergence criteria
 Diagonalising expanded subspace
 Copying updated data back
eigenvalue    9 init= -5.723     fin= -5.723     change= 0.1696E-06
eigenvalue   10 init= -5.503     fin= -5.503     change= 0.2956E-06
eigenvalue   11 init= -4.456     fin= -4.456     change= 0.1097E-04
eigenvalue   12 init= -3.611     fin= -3.611     change= 0.4879E-05
eigenvalue   13 init= -3.461     fin= -3.461     change= 0.1813E-05
eigenvalue   14 init= -1.941     fin= -1.941     change= 0.1374E-04
eigenvalue   15 init= -.6120E-01 fin= -.6120E-01 change= 0.8910E-06
eigenvalue   16 init=  2.026     fin=  2.026     change= 0.4839E-05
 Checking convergence criteria
 Diagonalising expanded subspace
 Copying updated data back
eigenvalue   17 init=  2.483     fin=  2.483     change= 0.5783E-07
 Checking convergence criteria
 no. bands in each block=           8
Kinetic eigenvalue #   1 =     0.38348954E+02
Kinetic eigenvalue #   2 =     0.39990472E+02
Kinetic eigenvalue #   3 =     0.39990660E+02
Kinetic eigenvalue #   4 =     0.39595175E+02
Kinetic eigenvalue #   5 =     0.25099043E+02
Kinetic eigenvalue #   6 =     0.42122290E+02
Kinetic eigenvalue #   7 =     0.37333009E+02
Kinetic eigenvalue #   8 =     0.37797753E+02
Kinetic eigenvalue #   9 =     0.37459157E+02
Kinetic eigenvalue #  10 =     0.37726085E+02
Kinetic eigenvalue #  11 =     0.20289048E+02
Kinetic eigenvalue #  12 =     0.37545412E+02
Kinetic eigenvalue #  13 =     0.41168606E+02
Kinetic eigenvalue #  14 =     0.25570897E+02
Kinetic eigenvalue #  15 =     0.13556246E+02
Kinetic eigenvalue #  16 =     0.80526225E+01
Kinetic eigenvalue #  17 =     0.17119021E+02
 Calculating the R matrix for the precon Sinv operator
 Diagonalising expanded subspace
 Copying updated data back
eigenvalue    1 init= -83.96     fin= -83.96     change= 0.2204E-08
eigenvalue    2 init= -53.14     fin= -53.14     change= 0.4614E-10
eigenvalue    3 init= -53.14     fin= -53.14     change= 0.4386E-10
eigenvalue    4 init= -52.98     fin= -52.98     change= 0.1226E-08
eigenvalue    5 init= -20.20     fin= -20.20     change= 0.2461E-05
eigenvalue    6 init= -7.578     fin= -7.578     change= 0.1705E-04
eigenvalue    7 init= -7.135     fin= -7.135     change= 0.3966E-05
eigenvalue    8 init= -7.100     fin= -7.100     change= 0.2160E-05
 Checking convergence criteria
 Diagonalising expanded subspace
 Copying updated data back
eigenvalue    1 init= -83.96     fin= -83.96     change= 0.2225E-08
eigenvalue    2 init= -53.14     fin= -53.14     change= 0.4631E-10
eigenvalue    3 init= -53.14     fin= -53.14     change= 0.4391E-10
eigenvalue    4 init= -52.98     fin= -52.98     change= 0.1299E-08
eigenvalue    5 init= -20.20     fin= -20.20     change= 0.2588E-05
eigenvalue    6 init= -7.578     fin= -7.578     change= 0.1816E-04
eigenvalue    7 init= -7.135     fin= -7.135     change= 0.4275E-05
eigenvalue    8 init= -7.100     fin= -7.100     change= 0.2292E-05
 Checking convergence criteria
 Diagonalising expanded subspace
 Copying updated data back
eigenvalue    9 init= -5.723     fin= -5.723     change= 0.1640E-06
eigenvalue   10 init= -5.503     fin= -5.503     change= 0.2946E-06
eigenvalue   11 init= -4.456     fin= -4.456     change= 0.9749E-05
eigenvalue   12 init= -3.611     fin= -3.611     change= 0.4344E-05
eigenvalue   13 init= -3.461     fin= -3.461     change= 0.1691E-05
eigenvalue   14 init= -1.941     fin= -1.941     change= 0.1176E-04
eigenvalue   15 init= -.6120E-01 fin= -.6120E-01 change= 0.6262E-06
eigenvalue   16 init=  2.026     fin=  2.026     change= 0.2501E-05
 Checking convergence criteria
 Diagonalising expanded subspace
 Copying updated data back
eigenvalue    9 init= -5.723     fin= -5.723     change= 0.1685E-06
eigenvalue   10 init= -5.503     fin= -5.503     change= 0.2954E-06
eigenvalue   11 init= -4.456     fin= -4.456     change= 0.1088E-04
eigenvalue   12 init= -3.611     fin= -3.611     change= 0.4842E-05
eigenvalue   13 init= -3.461     fin= -3.461     change= 0.1816E-05
eigenvalue   14 init= -1.941     fin= -1.941     change= 0.1355E-04
eigenvalue   15 init= -.6120E-01 fin= -.6120E-01 change= 0.8088E-06
eigenvalue   16 init=  2.026     fin=  2.026     change= 0.3824E-05
 Checking convergence criteria
 Diagonalising expanded subspace
 Copying updated data back
eigenvalue    9 init= -5.723     fin= -5.723     change= 0.1695E-06
eigenvalue   10 init= -5.503     fin= -5.503     change= 0.2954E-06
eigenvalue   11 init= -4.456     fin= -4.456     change= 0.1095E-04
eigenvalue   12 init= -3.611     fin= -3.611     change= 0.4897E-05
eigenvalue   13 init= -3.461     fin= -3.461     change= 0.1816E-05
eigenvalue   14 init= -1.941     fin= -1.941     change= 0.1373E-04
eigenvalue   15 init= -.6120E-01 fin= -.6120E-01 change= 0.8532E-06
eigenvalue   16 init=  2.026     fin=  2.026     change= 0.4539E-05
 Checking convergence criteria
 Diagonalising expanded subspace
 Copying updated data back
eigenvalue   17 init=  2.483     fin=  2.483     change= 0.9009E-07
 Checking convergence criteria
 no. bands in each block=           8
Kinetic eigenvalue #   1 =     0.38348971E+02
Kinetic eigenvalue #   2 =     0.39990483E+02
Kinetic eigenvalue #   3 =     0.39990481E+02
Kinetic eigenvalue #   4 =     0.39595183E+02
Kinetic eigenvalue #   5 =     0.25112526E+02
Kinetic eigenvalue #   6 =     0.42186747E+02
Kinetic eigenvalue #   7 =     0.37391950E+02
Kinetic eigenvalue #   8 =     0.37412406E+02
Kinetic eigenvalue #   9 =     0.37900587E+02
Kinetic eigenvalue #  10 =     0.37455932E+02
Kinetic eigenvalue #  11 =     0.23372275E+02
Kinetic eigenvalue #  12 =     0.38336693E+02
Kinetic eigenvalue #  13 =     0.38452615E+02
Kinetic eigenvalue #  14 =     0.24719402E+02
Kinetic eigenvalue #  15 =     0.13655755E+02
Kinetic eigenvalue #  16 =     0.14273376E+02
Kinetic eigenvalue #  17 =     0.77276904E+01
 Calculating the R matrix for the precon Sinv operator
 Diagonalising expanded subspace
 Copying updated data back
eigenvalue    1 init= -83.96     fin= -83.96     change= 0.2157E-08
eigenvalue    2 init= -53.14     fin= -53.14     change= 0.4808E-10
eigenvalue    3 init= -53.14     fin= -53.14     change= 0.4436E-10
eigenvalue    4 init= -52.98     fin= -52.98     change= 0.1366E-08
eigenvalue    5 init= -20.20     fin= -20.20     change= 0.2750E-05
eigenvalue    6 init= -7.574     fin= -7.574     change= 0.1902E-04
eigenvalue    7 init= -7.131     fin= -7.131     change= 0.3720E-05
eigenvalue    8 init= -7.130     fin= -7.130     change= 0.3662E-05
 Checking convergence criteria
 Diagonalising expanded subspace
 Copying updated data back
eigenvalue    1 init= -83.96     fin= -83.96     change= 0.2170E-08
eigenvalue    2 init= -53.14     fin= -53.14     change= 0.4832E-10
eigenvalue    3 init= -53.14     fin= -53.14     change= 0.4451E-10
eigenvalue    4 init= -52.98     fin= -52.98     change= 0.1446E-08
eigenvalue    5 init= -20.20     fin= -20.20     change= 0.2896E-05
eigenvalue    6 init= -7.574     fin= -7.574     change= 0.2030E-04
eigenvalue    7 init= -7.131     fin= -7.131     change= 0.4020E-05
eigenvalue    8 init= -7.130     fin= -7.130     change= 0.3954E-05
 Checking convergence criteria
 Diagonalising expanded subspace
 Copying updated data back
eigenvalue    9 init= -5.690     fin= -5.690     change= 0.9450E-07
eigenvalue   10 init= -5.521     fin= -5.521     change= 0.4423E-06
eigenvalue   11 init= -4.198     fin= -4.198     change= 0.1215E-04
eigenvalue   12 init= -3.591     fin= -3.591     change= 0.3071E-05
eigenvalue   13 init= -3.564     fin= -3.564     change= 0.5264E-05
eigenvalue   14 init= -1.754     fin= -1.754     change= 0.1194E-04
eigenvalue   15 init= 0.3040     fin= 0.3040     change= 0.5726E-06
eigenvalue   16 init= 0.4344     fin= 0.4344     change= 0.2283E-06
 Checking convergence criteria
 Diagonalising expanded subspace
 Copying updated data back
eigenvalue    9 init= -5.690     fin= -5.690     change= 0.9473E-07
eigenvalue   10 init= -5.521     fin= -5.521     change= 0.4565E-06
eigenvalue   11 init= -4.198     fin= -4.198     change= 0.1331E-04
eigenvalue   12 init= -3.591     fin= -3.591     change= 0.3437E-05
eigenvalue   13 init= -3.564     fin= -3.564     change= 0.5806E-05
eigenvalue   14 init= -1.754     fin= -1.754     change= 0.1345E-04
eigenvalue   15 init= 0.3040     fin= 0.3040     change= 0.7686E-06
eigenvalue   16 init= 0.4344     fin= 0.4344     change= 0.2694E-06
 Checking convergence criteria
 Diagonalising expanded subspace
 Copying updated data back
eigenvalue   17 init=  2.642     fin=  2.642     change= 0.7959E-06
 Checking convergence criteria
 no. bands in each block=           8
Kinetic eigenvalue #   1 =     0.38348960E+02
Kinetic eigenvalue #   2 =     0.39990472E+02
Kinetic eigenvalue #   3 =     0.39990660E+02
Kinetic eigenvalue #   4 =     0.39595175E+02
Kinetic eigenvalue #   5 =     0.25099043E+02
Kinetic eigenvalue #   6 =     0.42122289E+02
Kinetic eigenvalue #   7 =     0.37333012E+02
Kinetic eigenvalue #   8 =     0.37797753E+02
Kinetic eigenvalue #   9 =     0.37459155E+02
Kinetic eigenvalue #  10 =     0.37726085E+02
Kinetic eigenvalue #  11 =     0.20289011E+02
Kinetic eigenvalue #  12 =     0.37545438E+02
Kinetic eigenvalue #  13 =     0.41168603E+02
Kinetic eigenvalue #  14 =     0.25571076E+02
Kinetic eigenvalue #  15 =     0.13556085E+02
Kinetic eigenvalue #  16 =     0.80522571E+01
Kinetic eigenvalue #  17 =     0.17118951E+02
 Calculating the R matrix for the precon Sinv operator
 Diagonalising expanded subspace
 Copying updated data back
eigenvalue    1 init= -83.96     fin= -83.96     change= 0.2179E-08
eigenvalue    2 init= -53.14     fin= -53.14     change= 0.4588E-10
eigenvalue    3 init= -53.14     fin= -53.14     change= 0.4414E-10
eigenvalue    4 init= -52.98     fin= -52.98     change= 0.1226E-08
eigenvalue    5 init= -20.20     fin= -20.20     change= 0.2461E-05
eigenvalue    6 init= -7.578     fin= -7.578     change= 0.1705E-04
eigenvalue    7 init= -7.135     fin= -7.135     change= 0.3966E-05
eigenvalue    8 init= -7.100     fin= -7.100     change= 0.2160E-05
 Checking convergence criteria
 Diagonalising expanded subspace
 Copying updated data back
eigenvalue    1 init= -83.96     fin= -83.96     change= 0.2198E-08
eigenvalue    2 init= -53.14     fin= -53.14     change= 0.4605E-10
eigenvalue    3 init= -53.14     fin= -53.14     change= 0.4421E-10
eigenvalue    4 init= -52.98     fin= -52.98     change= 0.1298E-08
eigenvalue    5 init= -20.20     fin= -20.20     change= 0.2588E-05
eigenvalue    6 init= -7.578     fin= -7.578     change= 0.1816E-04
eigenvalue    7 init= -7.135     fin= -7.135     change= 0.4274E-05
eigenvalue    8 init= -7.100     fin= -7.100     change= 0.2292E-05
 Checking convergence criteria
 Diagonalising expanded subspace
 Copying updated data back
eigenvalue    9 init= -5.723     fin= -5.723     change= 0.1639E-06
eigenvalue   10 init= -5.503     fin= -5.503     change= 0.2947E-06
eigenvalue   11 init= -4.456     fin= -4.456     change= 0.9741E-05
eigenvalue   12 init= -3.611     fin= -3.611     change= 0.4356E-05
eigenvalue   13 init= -3.461     fin= -3.461     change= 0.1690E-05
eigenvalue   14 init= -1.941     fin= -1.941     change= 0.1184E-04
eigenvalue   15 init= -.6120E-01 fin= -.6120E-01 change= 0.5923E-06
eigenvalue   16 init=  2.026     fin=  2.026     change= 0.2320E-05
 Checking convergence criteria
 Diagonalising expanded subspace
 Copying updated data back
eigenvalue    9 init= -5.723     fin= -5.723     change= 0.1684E-06
eigenvalue   10 init= -5.503     fin= -5.503     change= 0.2957E-06
eigenvalue   11 init= -4.456     fin= -4.456     change= 0.1077E-04
eigenvalue   12 init= -3.611     fin= -3.611     change= 0.4861E-05
eigenvalue   13 init= -3.461     fin= -3.461     change= 0.1819E-05
eigenvalue   14 init= -1.941     fin= -1.941     change= 0.1347E-04
eigenvalue   15 init= -.6120E-01 fin= -.6120E-01 change= 0.7393E-06
eigenvalue   16 init=  2.026     fin=  2.026     change= 0.3391E-05
 Checking convergence criteria
 Diagonalising expanded subspace
 Copying updated data back
eigenvalue    9 init= -5.723     fin= -5.723     change= 0.1692E-06
eigenvalue   10 init= -5.503     fin= -5.503     change= 0.2957E-06
eigenvalue   11 init= -4.456     fin= -4.456     change= 0.1093E-04
eigenvalue   12 init= -3.611     fin= -3.611     change= 0.4923E-05
eigenvalue   13 init= -3.461     fin= -3.461     change= 0.1821E-05
eigenvalue   14 init= -1.941     fin= -1.941     change= 0.1385E-04
eigenvalue   15 init= -.6120E-01 fin= -.6120E-01 change= 0.7761E-06
eigenvalue   16 init=  2.026     fin=  2.026     change= 0.4191E-05
 Checking convergence criteria
 Diagonalising expanded subspace
 Copying updated data back
eigenvalue   17 init=  2.483     fin=  2.483     change= 0.7475E-07
 Checking convergence criteria
 no. bands in each block=           8
Kinetic eigenvalue #   1 =     0.37872827E+02
Kinetic eigenvalue #   2 =     0.39259389E+02
Kinetic eigenvalue #   3 =     0.39828255E+02
Kinetic eigenvalue #   4 =     0.39828260E+02
Kinetic eigenvalue #   5 =     0.25186723E+02
Kinetic eigenvalue #   6 =     0.43805622E+02
Kinetic eigenvalue #   7 =     0.37875739E+02
Kinetic eigenvalue #   8 =     0.37953623E+02
Kinetic eigenvalue #   9 =     0.36819316E+02
Kinetic eigenvalue #  10 =     0.32265673E+02
Kinetic eigenvalue #  11 =     0.22439585E+02
Kinetic eigenvalue #  12 =     0.36089903E+02
Kinetic eigenvalue #  13 =     0.36345366E+02
Kinetic eigenvalue #  14 =     0.23975481E+02
Kinetic eigenvalue #  15 =     0.13730900E+02
Kinetic eigenvalue #  16 =     0.14861435E+02
Kinetic eigenvalue #  17 =     0.80852684E+01
 Calculating the R matrix for the precon Sinv operator
 Diagonalising expanded subspace
 Copying updated data back
eigenvalue    1 init= -80.00     fin= -80.00     change= 0.1803E-08
eigenvalue    2 init= -49.54     fin= -49.54     change= 0.3961E-08
eigenvalue    3 init= -49.09     fin= -49.09     change= 0.6633E-10
eigenvalue    4 init= -49.09     fin= -49.09     change= 0.5156E-10
eigenvalue    5 init= -19.74     fin= -19.74     change= 0.4766E-05
eigenvalue    6 init= -6.589     fin= -6.589     change= 0.2064E-04
eigenvalue    7 init= -5.805     fin= -5.805     change= 0.3656E-05
eigenvalue    8 init= -5.802     fin= -5.802     change= 0.2105E-05
 Checking convergence criteria
 Diagonalising expanded subspace
 Copying updated data back
eigenvalue    1 init= -80.00     fin= -80.00     change= 0.1852E-08
eigenvalue    2 init= -49.54     fin= -49.54     change= 0.4185E-08
eigenvalue    3 init= -49.09     fin= -49.09     change= 0.6677E-10
eigenvalue    4 init= -49.09     fin= -49.09     change= 0.5170E-10
eigenvalue    5 init= -19.74     fin= -19.74     change= 0.5002E-05
eigenvalue    6 init= -6.589     fin= -6.589     change= 0.2187E-04
eigenvalue    7 init= -5.805     fin= -5.805     change= 0.3977E-05
eigenvalue    8 init= -5.802     fin= -5.802     change= 0.2243E-05
 Checking convergence criteria
 Diagonalising expanded subspace
 Copying updated data back
eigenvalue    9 init= -1.995     fin= -1.995     change= 0.3802E-05
eigenvalue   10 init= -1.936     fin= -1.936     change= 0.2456E-04
eigenvalue   11 init= -1.847     fin= -1.847     change= 0.2980E-04
eigenvalue   12 init= -1.040     fin= -1.040     change= 0.6224E-05
eigenvalue   13 init= -1.013     fin= -1.013     change= 0.2296E-04
eigenvalue   14 init= -.1703     fin= -.1703     change= 0.4233E-04
eigenvalue   15 init=  1.622     fin=  1.622     change= 0.1951E-05
eigenvalue   16 init=  1.854     fin=  1.854     change= 0.8194E-06
 Checking convergence criteria
 Diagonalising expanded subspace
 Copying updated data back
eigenvalue    9 init= -1.995     fin= -1.995     change= 0.3997E-05
eigenvalue   10 init= -1.936     fin= -1.936     change= 0.2704E-04
eigenvalue   11 init= -1.847     fin= -1.847     change= 0.3270E-04
eigenvalue   12 init= -1.040     fin= -1.040     change= 0.7068E-05
eigenvalue   13 init= -1.013     fin= -1.013     change= 0.2574E-04
eigenvalue   14 init= -.1703     fin= -.1703     change= 0.4785E-04
eigenvalue   15 init=  1.622     fin=  1.622     change= 0.2785E-05
eigenvalue   16 init=  1.854     fin=  1.854     change= 0.1138E-05
 Checking convergence criteria
 Diagonalising expanded subspace
 Copying updated data back
eigenvalue   17 init=  3.136     fin=  3.136     change= 0.4578E-05
 Checking convergence criteria
 Diagonalising expanded subspace
 Copying updated data back
eigenvalue   17 init=  3.136     fin=  3.136     change= 0.9169E-05
 Checking convergence criteria
 Diagonalising expanded subspace
 Copying updated data back
eigenvalue   17 init=  3.136     fin=  3.136     change= 0.1159E-04
 Checking convergence criteria
 Diagonalising expanded subspace
 Copying updated data back
eigenvalue   17 init=  3.136     fin=  3.136     change= 0.1270E-04
 Checking convergence criteria
 no. bands in each block=           8
Kinetic eigenvalue #   1 =     0.37872752E+02
Kinetic eigenvalue #   2 =     0.39259377E+02
Kinetic eigenvalue #   3 =     0.39828243E+02
Kinetic eigenvalue #   4 =     0.39828505E+02
Kinetic eigenvalue #   5 =     0.25173050E+02
Kinetic eigenvalue #   6 =     0.43723010E+02
Kinetic eigenvalue #   7 =     0.37749840E+02
Kinetic eigenvalue #   8 =     0.38728885E+02
Kinetic eigenvalue #   9 =     0.19304159E+02
Kinetic eigenvalue #  10 =     0.31832881E+02
Kinetic eigenvalue #  11 =     0.36757792E+02
Kinetic eigenvalue #  12 =     0.34455454E+02
Kinetic eigenvalue #  13 =     0.39782238E+02
Kinetic eigenvalue #  14 =     0.24529100E+02
Kinetic eigenvalue #  15 =     0.14893019E+02
Kinetic eigenvalue #  16 =     0.89241411E+01
Kinetic eigenvalue #  17 =     0.16019077E+02
 Calculating the R matrix for the precon Sinv operator
 Diagonalising expanded subspace
 Copying updated data back
eigenvalue    1 init= -80.00     fin= -80.00     change= 0.1865E-08
eigenvalue    2 init= -49.54     fin= -49.54     change= 0.3974E-08
eigenvalue    3 init= -49.09     fin= -49.09     change= 0.6190E-10
eigenvalue    4 init= -49.09     fin= -49.09     change= 0.5063E-10
eigenvalue    5 init= -19.74     fin= -19.74     change= 0.4760E-05
eigenvalue    6 init= -6.594     fin= -6.594     change= 0.2071E-04
eigenvalue    7 init= -5.812     fin= -5.812     change= 0.2681E-05
eigenvalue    8 init= -5.746     fin= -5.746     change= 0.1669E-05
 Checking convergence criteria
 Diagonalising expanded subspace
 Copying updated data back
eigenvalue    1 init= -80.00     fin= -80.00     change= 0.1915E-08
eigenvalue    2 init= -49.54     fin= -49.54     change= 0.4204E-08
eigenvalue    3 init= -49.09     fin= -49.09     change= 0.6208E-10
eigenvalue    4 init= -49.09     fin= -49.09     change= 0.5072E-10
eigenvalue    5 init= -19.74     fin= -19.74     change= 0.5031E-05
eigenvalue    6 init= -6.594     fin= -6.594     change= 0.2238E-04
eigenvalue    7 init= -5.812     fin= -5.812     change= 0.2845E-05
eigenvalue    8 init= -5.746     fin= -5.746     change= 0.1746E-05
 Checking convergence criteria
 Diagonalising expanded subspace
 Copying updated data back
eigenvalue    9 init= -2.372     fin= -2.372     change= 0.2810E-04
eigenvalue   10 init= -2.003     fin= -2.003     change= 0.1092E-04
eigenvalue   11 init= -1.812     fin= -1.812     change= 0.1035E-04
eigenvalue   12 init= -1.085     fin= -1.085     change= 0.1484E-04
eigenvalue   13 init= -.8884     fin= -.8885     change= 0.4941E-05
eigenvalue   14 init= -.3599     fin= -.3600     change= 0.5196E-04
eigenvalue   15 init=  1.234     fin=  1.234     change= 0.1673E-05
eigenvalue   16 init=  2.542     fin=  2.542     change= 0.1378E-04
 Checking convergence criteria
 Diagonalising expanded subspace
 Copying updated data back
eigenvalue    9 init= -2.372     fin= -2.372     change= 0.3111E-04
eigenvalue   10 init= -2.003     fin= -2.003     change= 0.1176E-04
eigenvalue   11 init= -1.812     fin= -1.812     change= 0.1091E-04
eigenvalue   12 init= -1.085     fin= -1.085     change= 0.1685E-04
eigenvalue   13 init= -.8884     fin= -.8885     change= 0.5327E-05
eigenvalue   14 init= -.3599     fin= -.3600     change= 0.5999E-04
eigenvalue   15 init=  1.234     fin=  1.234     change= 0.2137E-05
eigenvalue   16 init=  2.542     fin=  2.542     change= 0.1980E-04
 Checking convergence criteria
 Diagonalising expanded subspace
 Copying updated data back
eigenvalue    9 init= -2.372     fin= -2.372     change= 0.3120E-04
eigenvalue   10 init= -2.003     fin= -2.003     change= 0.1176E-04
eigenvalue   11 init= -1.812     fin= -1.812     change= 0.1091E-04
eigenvalue   12 init= -1.085     fin= -1.085     change= 0.1697E-04
eigenvalue   13 init= -.8884     fin= -.8885     change= 0.5345E-05
eigenvalue   14 init= -.3599     fin= -.3600     change= 0.6044E-04
eigenvalue   15 init=  1.234     fin=  1.234     change= 0.2187E-05
eigenvalue   16 init=  2.542     fin=  2.542     change= 0.2119E-04
 Checking convergence criteria
 Diagonalising expanded subspace
 Copying updated data back
eigenvalue   17 init=  4.243     fin=  4.243     change= 0.3344E-06
 Checking convergence criteria
 no. bands in each block=           8
Kinetic eigenvalue #   1 =     0.37872751E+02
Kinetic eigenvalue #   2 =     0.39259377E+02
Kinetic eigenvalue #   3 =     0.39828243E+02
Kinetic eigenvalue #   4 =     0.39828505E+02
Kinetic eigenvalue #   5 =     0.25173050E+02
Kinetic eigenvalue #   6 =     0.43723008E+02
Kinetic eigenvalue #   7 =     0.37749840E+02
Kinetic eigenvalue #   8 =     0.38728884E+02
Kinetic eigenvalue #   9 =     0.19304442E+02
Kinetic eigenvalue #  10 =     0.31832881E+02
Kinetic eigenvalue #  11 =     0.36757791E+02
Kinetic eigenvalue #  12 =     0.34455446E+02
Kinetic eigenvalue #  13 =     0.39782223E+02
Kinetic eigenvalue #  14 =     0.24529668E+02
Kinetic eigenvalue #  15 =     0.14893033E+02
Kinetic eigenvalue #  16 =     0.89240129E+01
Kinetic eigenvalue #  17 =     0.16026346E+02
 Calculating the R matrix for the precon Sinv operator
 Diagonalising expanded subspace
 Copying updated data back
eigenvalue    1 init= -80.00     fin= -80.00     change= 0.1866E-08
eigenvalue    2 init= -49.54     fin= -49.54     change= 0.3974E-08
eigenvalue    3 init= -49.09     fin= -49.09     change= 0.6199E-10
eigenvalue    4 init= -49.09     fin= -49.09     change= 0.5051E-10
eigenvalue    5 init= -19.74     fin= -19.74     change= 0.4762E-05
eigenvalue    6 init= -6.594     fin= -6.594     change= 0.2072E-04
eigenvalue    7 init= -5.812     fin= -5.812     change= 0.2682E-05
eigenvalue    8 init= -5.746     fin= -5.746     change= 0.1658E-05
 Checking convergence criteria
 Diagonalising expanded subspace
 Copying updated data back
eigenvalue    1 init= -80.00     fin= -80.00     change= 0.1914E-08
eigenvalue    2 init= -49.54     fin= -49.54     change= 0.4204E-08
eigenvalue    3 init= -49.09     fin= -49.09     change= 0.6212E-10
eigenvalue    4 init= -49.09     fin= -49.09     change= 0.5059E-10
eigenvalue    5 init= -19.74     fin= -19.74     change= 0.5033E-05
eigenvalue    6 init= -6.594     fin= -6.594     change= 0.2240E-04
eigenvalue    7 init= -5.812     fin= -5.812     change= 0.2846E-05
eigenvalue    8 init= -5.746     fin= -5.746     change= 0.1734E-05
 Checking convergence criteria
 Diagonalising expanded subspace
 Copying updated data back
eigenvalue    9 init= -2.372     fin= -2.372     change= 0.2790E-04
eigenvalue   10 init= -2.003     fin= -2.003     change= 0.1092E-04
eigenvalue   11 init= -1.812     fin= -1.812     change= 0.1035E-04
eigenvalue   12 init= -1.085     fin= -1.085     change= 0.1477E-04
eigenvalue   13 init= -.8884     fin= -.8885     change= 0.4891E-05
eigenvalue   14 init= -.3599     fin= -.3600     change= 0.5266E-04
eigenvalue   15 init=  1.234     fin=  1.234     change= 0.1617E-05
eigenvalue   16 init=  2.542     fin=  2.542     change= 0.1363E-04
 Checking convergence criteria
 Diagonalising expanded subspace
 Copying updated data back
eigenvalue    9 init= -2.372     fin= -2.372     change= 0.3087E-04
eigenvalue   10 init= -2.003     fin= -2.003     change= 0.1173E-04
eigenvalue   11 init= -1.812     fin= -1.812     change= 0.1091E-04
eigenvalue   12 init= -1.085     fin= -1.085     change= 0.1675E-04
eigenvalue   13 init= -.8884     fin= -.8885     change= 0.5273E-05
eigenvalue   14 init= -.3599     fin= -.3600     change= 0.6073E-04
eigenvalue   15 init=  1.234     fin=  1.234     change= 0.2052E-05
eigenvalue   16 init=  2.542     fin=  2.542     change= 0.1918E-04
 Checking convergence criteria
 Diagonalising expanded subspace
 Copying updated data back
eigenvalue    9 init= -2.372     fin= -2.372     change= 0.3095E-04
eigenvalue   10 init= -2.003     fin= -2.003     change= 0.1173E-04
eigenvalue   11 init= -1.812     fin= -1.812     change= 0.1091E-04
eigenvalue   12 init= -1.085     fin= -1.085     change= 0.1693E-04
eigenvalue   13 init= -.8884     fin= -.8885     change= 0.5281E-05
eigenvalue   14 init= -.3599     fin= -.3600     change= 0.6126E-04
eigenvalue   15 init=  1.234     fin=  1.234     change= 0.2116E-05
eigenvalue   16 init=  2.542     fin=  2.542     change= 0.2075E-04
 Checking convergence criteria
 Diagonalising expanded subspace
 Copying updated data back
eigenvalue   17 init=  4.243     fin=  4.243     change= 0.2149E-06
 Checking convergence criteria
 no. bands in each block=           8
Kinetic eigenvalue #   1 =     0.37872810E+02
Kinetic eigenvalue #   2 =     0.39259389E+02
Kinetic eigenvalue #   3 =     0.39828255E+02
Kinetic eigenvalue #   4 =     0.39828260E+02
Kinetic eigenvalue #   5 =     0.25186721E+02
Kinetic eigenvalue #   6 =     0.43805574E+02
Kinetic eigenvalue #   7 =     0.37875726E+02
Kinetic eigenvalue #   8 =     0.37953623E+02
Kinetic eigenvalue #   9 =     0.36819317E+02
Kinetic eigenvalue #  10 =     0.32265597E+02
Kinetic eigenvalue #  11 =     0.22439552E+02
Kinetic eigenvalue #  12 =     0.36089907E+02
Kinetic eigenvalue #  13 =     0.36345377E+02
Kinetic eigenvalue #  14 =     0.23975518E+02
Kinetic eigenvalue #  15 =     0.13729851E+02
Kinetic eigenvalue #  16 =     0.14861414E+02
Kinetic eigenvalue #  17 =     0.80823873E+01
 Calculating the R matrix for the precon Sinv operator
 Diagonalising expanded subspace
 Copying updated data back
eigenvalue    1 init= -80.00     fin= -80.00     change= 0.1856E-08
eigenvalue    2 init= -49.54     fin= -49.54     change= 0.3967E-08
eigenvalue    3 init= -49.09     fin= -49.09     change= 0.6623E-10
eigenvalue    4 init= -49.09     fin= -49.09     change= 0.5145E-10
eigenvalue    5 init= -19.74     fin= -19.74     change= 0.4750E-05
eigenvalue    6 init= -6.589     fin= -6.589     change= 0.2055E-04
eigenvalue    7 init= -5.805     fin= -5.805     change= 0.3673E-05
eigenvalue    8 init= -5.802     fin= -5.802     change= 0.2105E-05
 Checking convergence criteria
 Diagonalising expanded subspace
 Copying updated data back
eigenvalue    1 init= -80.00     fin= -80.00     change= 0.1912E-08
eigenvalue    2 init= -49.54     fin= -49.54     change= 0.4199E-08
eigenvalue    3 init= -49.09     fin= -49.09     change= 0.6661E-10
eigenvalue    4 init= -49.09     fin= -49.09     change= 0.5159E-10
eigenvalue    5 init= -19.74     fin= -19.74     change= 0.4999E-05
eigenvalue    6 init= -6.589     fin= -6.589     change= 0.2185E-04
eigenvalue    7 init= -5.805     fin= -5.805     change= 0.4004E-05
eigenvalue    8 init= -5.802     fin= -5.802     change= 0.2242E-05
 Checking convergence criteria
 Diagonalising expanded subspace
 Copying updated data back
eigenvalue    9 init= -1.995     fin= -1.995     change= 0.3802E-05
eigenvalue   10 init= -1.936     fin= -1.936     change= 0.2455E-04
eigenvalue   11 init= -1.847     fin= -1.847     change= 0.2989E-04
eigenvalue   12 init= -1.040     fin= -1.040     change= 0.6225E-05
eigenvalue   13 init= -1.013     fin= -1.013     change= 0.2300E-04
eigenvalue   14 init= -.1703     fin= -.1703     change= 0.4265E-04
eigenvalue   15 init=  1.622     fin=  1.622     change= 0.1673E-05
eigenvalue   16 init=  1.854     fin=  1.854     change= 0.8155E-06
 Checking convergence criteria
 Diagonalising expanded subspace
 Copying updated data back
eigenvalue    9 init= -1.995     fin= -1.995     change= 0.3997E-05
eigenvalue   10 init= -1.936     fin= -1.936     change= 0.2701E-04
eigenvalue   11 init= -1.847     fin= -1.847     change= 0.3259E-04
eigenvalue   12 init= -1.040     fin= -1.040     change= 0.7073E-05
eigenvalue   13 init= -1.013     fin= -1.013     change= 0.2576E-04
eigenvalue   14 init= -.1703     fin= -.1703     change= 0.4790E-04
eigenvalue   15 init=  1.622     fin=  1.622     change= 0.2279E-05
eigenvalue   16 init=  1.854     fin=  1.854     change= 0.1132E-05
 Checking convergence criteria
 Diagonalising expanded subspace
 Copying updated data back
eigenvalue   17 init=  3.136     fin=  3.136     change= 0.3443E-05
 Checking convergence criteria
 Diagonalising expanded subspace
 Copying updated data back
eigenvalue   17 init=  3.136     fin=  3.136     change= 0.8601E-05
 Checking convergence criteria
 Diagonalising expanded subspace
 Copying updated data back
eigenvalue   17 init=  3.136     fin=  3.136     change= 0.1050E-04
 Checking convergence criteria
 Diagonalising expanded subspace
 Copying updated data back
eigenvalue   17 init=  3.136     fin=  3.136     change= 0.1131E-04
 Checking convergence criteria
 no. bands in each block=           8
Kinetic eigenvalue #   1 =     0.37872752E+02
Kinetic eigenvalue #   2 =     0.39259377E+02
Kinetic eigenvalue #   3 =     0.39828243E+02
Kinetic eigenvalue #   4 =     0.39828505E+02
Kinetic eigenvalue #   5 =     0.25173050E+02
Kinetic eigenvalue #   6 =     0.43723007E+02
Kinetic eigenvalue #   7 =     0.37749840E+02
Kinetic eigenvalue #   8 =     0.38728886E+02
Kinetic eigenvalue #   9 =     0.19304417E+02
Kinetic eigenvalue #  10 =     0.31832909E+02
Kinetic eigenvalue #  11 =     0.36757792E+02
Kinetic eigenvalue #  12 =     0.34455431E+02
Kinetic eigenvalue #  13 =     0.39782232E+02
Kinetic eigenvalue #  14 =     0.24529650E+02
Kinetic eigenvalue #  15 =     0.14893062E+02
Kinetic eigenvalue #  16 =     0.89240042E+01
Kinetic eigenvalue #  17 =     0.16012492E+02
 Calculating the R matrix for the precon Sinv operator
 Diagonalising expanded subspace
 Copying updated data back
eigenvalue    1 init= -80.00     fin= -80.00     change= 0.1864E-08
eigenvalue    2 init= -49.54     fin= -49.54     change= 0.3973E-08
eigenvalue    3 init= -49.09     fin= -49.09     change= 0.6197E-10
eigenvalue    4 init= -49.09     fin= -49.09     change= 0.5068E-10
eigenvalue    5 init= -19.74     fin= -19.74     change= 0.4759E-05
eigenvalue    6 init= -6.594     fin= -6.594     change= 0.2071E-04
eigenvalue    7 init= -5.812     fin= -5.812     change= 0.2681E-05
eigenvalue    8 init= -5.746     fin= -5.746     change= 0.1677E-05
 Checking convergence criteria
 Diagonalising expanded subspace
 Copying updated data back
eigenvalue    1 init= -80.00     fin= -80.00     change= 0.1913E-08
eigenvalue    2 init= -49.54     fin= -49.54     change= 0.4204E-08
eigenvalue    3 init= -49.09     fin= -49.09     change= 0.6216E-10
eigenvalue    4 init= -49.09     fin= -49.09     change= 0.5076E-10
eigenvalue    5 init= -19.74     fin= -19.74     change= 0.5030E-05
eigenvalue    6 init= -6.594     fin= -6.594     change= 0.2238E-04
eigenvalue    7 init= -5.812     fin= -5.812     change= 0.2845E-05
eigenvalue    8 init= -5.746     fin= -5.746     change= 0.1755E-05
 Checking convergence criteria
 Diagonalising expanded subspace
 Copying updated data back
eigenvalue    9 init= -2.372     fin= -2.372     change= 0.2784E-04
eigenvalue   10 init= -2.003     fin= -2.003     change= 0.1091E-04
eigenvalue   11 init= -1.812     fin= -1.812     change= 0.1036E-04
eigenvalue   12 init= -1.085     fin= -1.085     change= 0.1472E-04
eigenvalue   13 init= -.8884     fin= -.8885     change= 0.4960E-05
eigenvalue   14 init= -.3599     fin= -.3600     change= 0.5248E-04
eigenvalue   15 init=  1.234     fin=  1.234     change= 0.1621E-05
eigenvalue   16 init=  2.542     fin=  2.542     change= 0.1352E-04
 Checking convergence criteria
 Diagonalising expanded subspace
 Copying updated data back
eigenvalue    9 init= -2.372     fin= -2.372     change= 0.3086E-04
eigenvalue   10 init= -2.003     fin= -2.003     change= 0.1173E-04
eigenvalue   11 init= -1.812     fin= -1.812     change= 0.1092E-04
eigenvalue   12 init= -1.085     fin= -1.085     change= 0.1675E-04
eigenvalue   13 init= -.8884     fin= -.8885     change= 0.5367E-05
eigenvalue   14 init= -.3599     fin= -.3600     change= 0.6063E-04
eigenvalue   15 init=  1.234     fin=  1.234     change= 0.2074E-05
eigenvalue   16 init=  2.542     fin=  2.542     change= 0.1916E-04
 Checking convergence criteria
 Diagonalising expanded subspace
 Copying updated data back
eigenvalue    9 init= -2.372     fin= -2.372     change= 0.3095E-04
eigenvalue   10 init= -2.003     fin= -2.003     change= 0.1173E-04
eigenvalue   11 init= -1.812     fin= -1.812     change= 0.1092E-04
eigenvalue   12 init= -1.085     fin= -1.085     change= 0.1692E-04
eigenvalue   13 init= -.8884     fin= -.8885     change= 0.5378E-05
eigenvalue   14 init= -.3599     fin= -.3600     change= 0.6118E-04
eigenvalue   15 init=  1.234     fin=  1.234     change= 0.2138E-05
eigenvalue   16 init=  2.542     fin=  2.542     change= 0.2077E-04
 Checking convergence criteria
 Diagonalising expanded subspace
 Copying updated data back
eigenvalue   17 init=  4.243     fin=  4.243     change= 0.3859E-06
 Checking convergence criteria
(Entering electronic_find_fermi_fix)
Smearing occupancies with Gaussians
Spin: 1, Min eigenvalue: -8.4755E+001 eV, Max eigenvalue:  3.4417E+000 eV
Fermi energy for up electrons = -3.0590E+000 eV [lower bound; range =  1.96E-014 eV]
Spin: 2, Min eigenvalue: -8.0796E+001 eV, Max eigenvalue:  5.0426E+000 eV
Fermi energy for down electrons = -3.0876E+000 eV [lower bound; range =  1.91E-014 eV]
(Leaving electronic_find_fermi_fix)
NB material has an apparent band gap of  1.3444E+000eV for spin up electrons.
NB material has an apparent band gap of  3.3739E+000eV for spin down electrons.
Calculating KE and non-local eigenvalues to find total energy
 
End of SCF cycle energies
Exchange-correlation energy      =      -499.07913191541501874 eV
+Hartree energy                  =      2055.86480228865912068 eV
+Local pseudopotential energy    =     -5072.04198973965321784 eV
----------------------------------
Potential energy (total)         =     -3513.84924131844127260 eV
                                  
+Hubbard U energy                =         0.95999999999999996 eV
+Kinetic energy                  =       776.72453328855135624 eV
+Non-local energy                =       150.76120839142157593 eV
+Electronic entropy term (-TS)   =        -0.00123549787959782 eV
+Ewald energy (const)            =      -774.85607651874397561 eV
+non-Coulombic energy (const)    =        13.80612138473854067 eV
----------------------------------
Total free energy (E-TS)         =     -3346.45469027035414911 eV
 
NB est. 0K energy (E-0.5TS)      =     -3346.45407252141421850 eV
 
(XC correction to eigenvalue sum =        44.01690523340165129 eV)
(Hubbard U correction to eigenvalu         0.00000003000000000 eV)
 
      1  -3.34645469E+003 -3.06990884E+000   2.45349997E-002      15.43  <-- SCF
 Calculate new overlap and Hubbard U matrix
 Density matrix in cubic harmonics:
     1.0000     0.0000     0.0000     0.0000     0.0000
     0.0000     0.0000     0.0000     0.0000     0.0000
     0.0000     0.0000     0.0000     0.0000     0.0000
     0.0000     0.0000     0.0000     0.0000     0.0000
     0.0000     0.0000     0.0000     0.0000     0.0000
     0.0000     0.0000     0.0000     0.0000     0.0000
     0.0000     0.0000     0.0000     1.0000     0.0000
     0.0000     0.0000     0.0000     0.0000     0.0000
     0.0000     0.0000     0.0000     0.0000     1.0000
     0.0000     0.0000     0.0000     0.0000     0.0000
 Hermiticity:        (-4.44089209850062616E-016,0.0000000000000000)
 Density matrix in cubic harmonics:
     1.0000     0.0000     0.0000     0.0000     0.0000
     0.0000     0.0000     0.0000     0.0000     0.0000
     0.0000     0.0000     0.0000     0.0000     0.0000
     0.0000     0.0000     0.0000     0.0000     0.0000
     0.0000     0.0000     0.0000     0.0000     0.0000
     0.0000     0.0000     0.0000     0.0000     0.0000
     0.0000     0.0000     0.0000     1.0000     0.0000
     0.0000     0.0000     0.0000     0.0000     0.0000
     0.0000     0.0000     0.0000     0.0000     1.0000
     0.0000     0.0000     0.0000     0.0000     0.0000
 Hermiticity:        (-4.44089209850062616E-016,0.0000000000000000)
 Density matrix in cubic harmonics:
     0.9419     0.0000    -0.0000     0.1003    -0.0000
     0.0000     0.0000     0.0000     0.0000     0.0000
     0.0000     0.9997    -0.0000    -0.0000    -0.0000
     0.0000     0.0000     0.0000     0.0000     0.0000
    -0.0000    -0.0000     0.9778     0.0000    -0.0000
     0.0000     0.0000     0.0000     0.0000     0.0000
     0.1003    -0.0000     0.0000     0.8261     0.0000
     0.0000     0.0000     0.0000     0.0000     0.0000
    -0.0000    -0.0000    -0.0000     0.0000     0.9778
     0.0000     0.0000     0.0000     0.0000     0.0000
 Hermiticity:              (0.22199482253675251,0.0000000000000000)
 Density matrix in cubic harmonics:
     0.0842     0.0000     0.0000    -0.1457    -0.0000
     0.0000     0.0000     0.0000     0.0000     0.0000
     0.0000     0.0000     0.0000    -0.0000     0.0000
     0.0000     0.0000     0.0000     0.0000     0.0000
     0.0000     0.0000     0.3044     0.0000     0.0000
     0.0000     0.0000     0.0000     0.0000     0.0000
    -0.1457    -0.0000     0.0000     0.2525     0.0000
     0.0000     0.0000     0.0000     0.0000     0.0000
    -0.0000     0.0000     0.0000     0.0000     0.3044
     0.0000     0.0000     0.0000     0.0000     0.0000
 Hermiticity:              (0.64691206297882720,0.0000000000000000)
  Hubbard energy diff=  -5.2976450972253952E-002 eV <-- Hubbard_U
  ----------- Hubbard U: New occupation matrix calculated: --------------------
  0.90702354902774607      eV <= Edirect

     Hubbard U occupation numbers
     ----------------------------
Species   Ion   l  spin               occupancies
==================================================================
  Mn       1    2   up:   0.77  0.98  0.98  1.00  1.00
                    dn:   0.00  0.00  0.30  0.30  0.34
==================================================================

 Only the high frequencies of the density were mixed in this cycle 
Symmetrising density
Calculating local potential
Calculating Hubbard U potential
 Density matrix in cubic harmonics:
     1.0000     0.0000     0.0000     0.0000     0.0000
     0.0000     0.0000     0.0000     0.0000     0.0000
     0.0000     0.0000     0.0000     0.0000     0.0000
     0.0000     0.0000     0.0000     0.0000     0.0000
     0.0000     0.0000     0.0000     0.0000     0.0000
     0.0000     0.0000     0.0000     0.0000     0.0000
     0.0000     0.0000     0.0000     1.0000     0.0000
     0.0000     0.0000     0.0000     0.0000     0.0000
     0.0000     0.0000     0.0000     0.0000     1.0000
     0.0000     0.0000     0.0000     0.0000     0.0000
 Hermiticity:        (-4.44089209850062616E-016,0.0000000000000000)
 Density matrix in cubic harmonics:
     1.0000     0.0000     0.0000     0.0000     0.0000
     0.0000     0.0000     0.0000     0.0000     0.0000
     0.0000     0.0000     0.0000     0.0000     0.0000
     0.0000     0.0000     0.0000     0.0000     0.0000
     0.0000     0.0000     0.0000     0.0000     0.0000
     0.0000     0.0000     0.0000     0.0000     0.0000
     0.0000     0.0000     0.0000     1.0000     0.0000
     0.0000     0.0000     0.0000     0.0000     0.0000
     0.0000     0.0000     0.0000     0.0000     1.0000
     0.0000     0.0000     0.0000     0.0000     0.0000
 Hermiticity:        (-4.44089209850062616E-016,0.0000000000000000)
Calculating non-local weights
Starting SCF cycle     2 of up to    30
 no. bands in each block=           8
Kinetic eigenvalue #   1 =     0.38349112E+02
Kinetic eigenvalue #   2 =     0.39990488E+02
Kinetic eigenvalue #   3 =     0.39990493E+02
Kinetic eigenvalue #   4 =     0.39595250E+02
Kinetic eigenvalue #   5 =     0.25096735E+02
Kinetic eigenvalue #   6 =     0.42310190E+02
Kinetic eigenvalue #   7 =     0.37455017E+02
Kinetic eigenvalue #   8 =     0.37478411E+02
Kinetic eigenvalue #   9 =     0.37898883E+02
Kinetic eigenvalue #  10 =     0.37452135E+02
Kinetic eigenvalue #  11 =     0.22981413E+02
Kinetic eigenvalue #  12 =     0.38195302E+02
Kinetic eigenvalue #  13 =     0.38322291E+02
Kinetic eigenvalue #  14 =     0.24942533E+02
Kinetic eigenvalue #  15 =     0.13721670E+02
Kinetic eigenvalue #  16 =     0.14349095E+02
Kinetic eigenvalue #  17 =     0.77478949E+01
 Diagonalising expanded subspace
 Copying updated data back
eigenvalue    1 init= -83.96     fin= -83.96     change= 0.1355E-08
eigenvalue    2 init= -53.14     fin= -53.14     change= 0.1413E-10
eigenvalue    3 init= -53.14     fin= -53.14     change= 0.1324E-10
eigenvalue    4 init= -52.98     fin= -52.98     change= 0.1749E-10
eigenvalue    5 init= -20.20     fin= -20.20     change= 0.1323E-07
eigenvalue    6 init= -7.574     fin= -7.574     change= 0.1542E-06
eigenvalue    7 init= -7.131     fin= -7.131     change= 0.4646E-07
eigenvalue    8 init= -7.130     fin= -7.130     change= 0.5409E-07
 Checking convergence criteria
 Diagonalising expanded subspace
 Copying updated data back
eigenvalue    9 init= -5.690     fin= -5.690     change= 0.4450E-08
eigenvalue   10 init= -5.521     fin= -5.521     change= 0.3086E-07
eigenvalue   11 init= -4.198     fin= -4.198     change= 0.2067E-06
eigenvalue   12 init= -3.591     fin= -3.591     change= 0.2592E-07
eigenvalue   13 init= -3.564     fin= -3.564     change= 0.7492E-07
eigenvalue   14 init= -1.754     fin= -1.754     change= 0.3163E-06
eigenvalue   15 init= 0.3040     fin= 0.3040     change= 0.9438E-07
eigenvalue   16 init= 0.4344     fin= 0.4344     change= 0.1122E-07
 Checking convergence criteria
 Diagonalising expanded subspace
 Copying updated data back
eigenvalue   17 init=  2.642     fin=  2.642     change= 0.5438E-06
 Checking convergence criteria
 no. bands in each block=           8
Kinetic eigenvalue #   1 =     0.38349090E+02
Kinetic eigenvalue #   2 =     0.39990480E+02
Kinetic eigenvalue #   3 =     0.39990669E+02
Kinetic eigenvalue #   4 =     0.39595242E+02
Kinetic eigenvalue #   5 =     0.25082909E+02
Kinetic eigenvalue #   6 =     0.42248472E+02
Kinetic eigenvalue #   7 =     0.37393133E+02
Kinetic eigenvalue #   8 =     0.37881537E+02
Kinetic eigenvalue #   9 =     0.37439875E+02
Kinetic eigenvalue #  10 =     0.37724661E+02
Kinetic eigenvalue #  11 =     0.19924491E+02
Kinetic eigenvalue #  12 =     0.37388966E+02
Kinetic eigenvalue #  13 =     0.41058449E+02
Kinetic eigenvalue #  14 =     0.25769666E+02
Kinetic eigenvalue #  15 =     0.13648250E+02
Kinetic eigenvalue #  16 =     0.80852939E+01
Kinetic eigenvalue #  17 =     0.17146925E+02
 Diagonalising expanded subspace
 Copying updated data back
eigenvalue    1 init= -83.96     fin= -83.96     change= 0.1426E-08
eigenvalue    2 init= -53.14     fin= -53.14     change= 0.1356E-10
eigenvalue    3 init= -53.14     fin= -53.14     change= 0.1372E-10
eigenvalue    4 init= -52.98     fin= -52.98     change= 0.1442E-10
eigenvalue    5 init= -20.20     fin= -20.20     change= 0.1013E-07
eigenvalue    6 init= -7.578     fin= -7.578     change= 0.1185E-06
eigenvalue    7 init= -7.135     fin= -7.135     change= 0.4126E-07
eigenvalue    8 init= -7.100     fin= -7.100     change= 0.1835E-07
 Checking convergence criteria
 Diagonalising expanded subspace
 Copying updated data back
eigenvalue    9 init= -5.723     fin= -5.723     change= 0.9873E-08
eigenvalue   10 init= -5.503     fin= -5.503     change= 0.2239E-07
eigenvalue   11 init= -4.456     fin= -4.456     change= 0.7795E-07
eigenvalue   12 init= -3.611     fin= -3.611     change= 0.3373E-07
eigenvalue   13 init= -3.461     fin= -3.461     change= 0.1670E-07
eigenvalue   14 init= -1.941     fin= -1.941     change= 0.1453E-06
eigenvalue   15 init= -.6120E-01 fin= -.6120E-01 change= 0.2397E-07
eigenvalue   16 init=  2.026     fin=  2.026     change= 0.2394E-06
 Checking convergence criteria
 Diagonalising expanded subspace
 Copying updated data back
eigenvalue   17 init=  2.483     fin=  2.483     change= 0.2617E-07
 Checking convergence criteria
 no. bands in each block=           8
Kinetic eigenvalue #   1 =     0.38349099E+02
Kinetic eigenvalue #   2 =     0.39990480E+02
Kinetic eigenvalue #   3 =     0.39990668E+02
Kinetic eigenvalue #   4 =     0.39595242E+02
Kinetic eigenvalue #   5 =     0.25082904E+02
Kinetic eigenvalue #   6 =     0.42248433E+02
Kinetic eigenvalue #   7 =     0.37393121E+02
Kinetic eigenvalue #   8 =     0.37881531E+02
Kinetic eigenvalue #   9 =     0.37439868E+02
Kinetic eigenvalue #  10 =     0.37724662E+02
Kinetic eigenvalue #  11 =     0.19924498E+02
Kinetic eigenvalue #  12 =     0.37388961E+02
Kinetic eigenvalue #  13 =     0.41058471E+02
Kinetic eigenvalue #  14 =     0.25769761E+02
Kinetic eigenvalue #  15 =     0.13648243E+02
Kinetic eigenvalue #  16 =     0.80851174E+01
Kinetic eigenvalue #  17 =     0.17146620E+02
 Diagonalising expanded subspace
 Copying updated data back
eigenvalue    1 init= -83.96     fin= -83.96     change= 0.1356E-08
eigenvalue    2 init= -53.14     fin= -53.14     change= 0.1350E-10
eigenvalue    3 init= -53.14     fin= -53.14     change= 0.1365E-10
eigenvalue    4 init= -52.98     fin= -52.98     change= 0.1375E-10
eigenvalue    5 init= -20.20     fin= -20.20     change= 0.9753E-08
eigenvalue    6 init= -7.578     fin= -7.578     change= 0.1110E-06
eigenvalue    7 init= -7.135     fin= -7.135     change= 0.4186E-07
eigenvalue    8 init= -7.100     fin= -7.100     change= 0.1883E-07
 Checking convergence criteria
 Diagonalising expanded subspace
 Copying updated data back
eigenvalue    9 init= -5.723     fin= -5.723     change= 0.9797E-08
eigenvalue   10 init= -5.503     fin= -5.503     change= 0.2243E-07
eigenvalue   11 init= -4.456     fin= -4.456     change= 0.8537E-07
eigenvalue   12 init= -3.611     fin= -3.611     change= 0.2772E-07
eigenvalue   13 init= -3.461     fin= -3.461     change= 0.1929E-07
eigenvalue   14 init= -1.941     fin= -1.941     change= 0.1485E-06
eigenvalue   15 init= -.6120E-01 fin= -.6120E-01 change= 0.2039E-07
eigenvalue   16 init=  2.026     fin=  2.026     change= 0.2014E-06
 Checking convergence criteria
 Diagonalising expanded subspace
 Copying updated data back
eigenvalue   17 init=  2.483     fin=  2.483     change= 0.6234E-07
 Checking convergence criteria
 no. bands in each block=           8
Kinetic eigenvalue #   1 =     0.38349116E+02
Kinetic eigenvalue #   2 =     0.39990488E+02
Kinetic eigenvalue #   3 =     0.39990493E+02
Kinetic eigenvalue #   4 =     0.39595250E+02
Kinetic eigenvalue #   5 =     0.25096717E+02
Kinetic eigenvalue #   6 =     0.42310242E+02
Kinetic eigenvalue #   7 =     0.37454989E+02
Kinetic eigenvalue #   8 =     0.37478408E+02
Kinetic eigenvalue #   9 =     0.37898883E+02
Kinetic eigenvalue #  10 =     0.37452136E+02
Kinetic eigenvalue #  11 =     0.22981295E+02
Kinetic eigenvalue #  12 =     0.38195302E+02
Kinetic eigenvalue #  13 =     0.38322321E+02
Kinetic eigenvalue #  14 =     0.24942352E+02
Kinetic eigenvalue #  15 =     0.13721665E+02
Kinetic eigenvalue #  16 =     0.14349095E+02
Kinetic eigenvalue #  17 =     0.77460248E+01
 Diagonalising expanded subspace
 Copying updated data back
eigenvalue    1 init= -83.96     fin= -83.96     change= 0.1329E-08
eigenvalue    2 init= -53.14     fin= -53.14     change= 0.1401E-10
eigenvalue    3 init= -53.14     fin= -53.14     change= 0.1320E-10
eigenvalue    4 init= -52.98     fin= -52.98     change= 0.1717E-10
eigenvalue    5 init= -20.20     fin= -20.20     change= 0.1241E-07
eigenvalue    6 init= -7.574     fin= -7.574     change= 0.1357E-06
eigenvalue    7 init= -7.131     fin= -7.131     change= 0.5124E-07
eigenvalue    8 init= -7.130     fin= -7.130     change= 0.5443E-07
 Checking convergence criteria
 Diagonalising expanded subspace
 Copying updated data back
eigenvalue    9 init= -5.690     fin= -5.690     change= 0.4450E-08
eigenvalue   10 init= -5.521     fin= -5.521     change= 0.3080E-07
eigenvalue   11 init= -4.198     fin= -4.198     change= 0.1511E-06
eigenvalue   12 init= -3.591     fin= -3.591     change= 0.2591E-07
eigenvalue   13 init= -3.564     fin= -3.564     change= 0.7692E-07
eigenvalue   14 init= -1.754     fin= -1.754     change= 0.2313E-06
eigenvalue   15 init= 0.3040     fin= 0.3040     change= 0.9664E-07
eigenvalue   16 init= 0.4344     fin= 0.4344     change= 0.1121E-07
 Checking convergence criteria
[...]
Spin 1, kpoint ( 0.250000 -0.333333  0.333333 ) weight = 0.111111
+--------+-------------------+----------------+
|  Band  |   Eigenvalue      |    Occupancy   |                   <- occ
+--------+-------------------+----------------+                   <- occ
|     8  |   -.716769E+01    |   1.00000      |                   <- occ
|     9  |   -.579104E+01    |   1.00000      |                   <- occ
|    10  |   -.562038E+01    |   1.00000      |                   <- occ
|    11  |   -.424502E+01    |   1.00000      |                   <- occ
|    12  |   -.363299E+01    |  0.999894      |                   <- occ
|    13  |   -.360627E+01    |  0.999780      |                   <- occ
|    14  |   -.179141E+01    |   0.00000      |                   <- occ
|    15  |   0.285486E+00    |   0.00000      |                   <- occ
+--------+-------------------+----------------+                   <- occ
Spin 2, kpoint (-0.250000 -0.333333 -0.333333 ) weight = 0.111111
+--------+-------------------+----------------+
|  Band  |   Eigenvalue      |    Occupancy   |                   <- occ
+--------+-------------------+----------------+                   <- occ
|     8  |   -.581589E+01    |   1.00000      |                   <- occ
|     9  |   -.207839E+01    |  0.156708E-12  |                   <- occ
|    10  |   -.199107E+01    |  0.133227E-14  |                   <- occ
|    11  |   -.191937E+01    |   0.00000      |                   <- occ
|    12  |   -.110623E+01    |   0.00000      |                   <- occ
|    13  |   -.107965E+01    |   0.00000      |                   <- occ
|    14  |   -.211262E+00    |   0.00000      |                   <- occ
|    15  |   0.160158E+01    |   0.00000      |                   <- occ
+--------+-------------------+----------------+                   <- occ
Spin 2, kpoint (-0.250000  0.000000 -0.333333 ) weight = 0.111111
+--------+-------------------+----------------+
|  Band  |   Eigenvalue      |    Occupancy   |                   <- occ
+--------+-------------------+----------------+                   <- occ
|     8  |   -.576082E+01    |   1.00000      |                   <- occ
|     9  |   -.241669E+01    |  0.488114E-06  |                   <- occ
|    10  |   -.208052E+01    |  0.175304E-12  |                   <- occ
|    11  |   -.189489E+01    |   0.00000      |                   <- occ
|    12  |   -.114947E+01    |   0.00000      |                   <- occ
|    13  |   -.957332E+00    |   0.00000      |                   <- occ
|    14  |   -.403244E+00    |   0.00000      |                   <- occ
|    15  |   0.121194E+01    |   0.00000      |                   <- occ
+--------+-------------------+----------------+                   <- occ
Spin 2, kpoint (-0.250000  0.000000  0.333333 ) weight = 0.111111
+--------+-------------------+----------------+
|  Band  |   Eigenvalue      |    Occupancy   |                   <- occ
+--------+-------------------+----------------+                   <- occ
|     8  |   -.576082E+01    |   1.00000      |                   <- occ
|     9  |   -.241669E+01    |  0.488114E-06  |                   <- occ
|    10  |   -.208052E+01    |  0.175304E-12  |                   <- occ
|    11  |   -.189489E+01    |   0.00000      |                   <- occ
|    12  |   -.114947E+01    |   0.00000      |                   <- occ
|    13  |   -.957332E+00    |   0.00000      |                   <- occ
|    14  |   -.403244E+00    |   0.00000      |                   <- occ
|    15  |   0.121194E+01    |   0.00000      |                   <- occ
+--------+-------------------+----------------+                   <- occ
Spin 2, kpoint (-0.250000  0.333333  0.333333 ) weight = 0.111111
+--------+-------------------+----------------+
|  Band  |   Eigenvalue      |    Occupancy   |                   <- occ
+--------+-------------------+----------------+                   <- occ
|     8  |   -.581589E+01    |   1.00000      |                   <- occ
|     9  |   -.207839E+01    |  0.156708E-12  |                   <- occ
|    10  |   -.199107E+01    |  0.133227E-14  |                   <- occ
|    11  |   -.191937E+01    |   0.00000      |                   <- occ
|    12  |   -.110623E+01    |   0.00000      |                   <- occ
|    13  |   -.107965E+01    |   0.00000      |                   <- occ
|    14  |   -.211262E+00    |   0.00000      |                   <- occ
|    15  |   0.160158E+01    |   0.00000      |                   <- occ
+--------+-------------------+----------------+                   <- occ
Spin 2, kpoint ( 0.250000  0.333333  0.000000 ) weight = 0.111111
+--------+-------------------+----------------+
|  Band  |   Eigenvalue      |    Occupancy   |                   <- occ
+--------+-------------------+----------------+                   <- occ
|     8  |   -.576082E+01    |   1.00000      |                   <- occ
|     9  |   -.241669E+01    |  0.488113E-06  |                   <- occ
|    10  |   -.208052E+01    |  0.175304E-12  |                   <- occ
|    11  |   -.189489E+01    |   0.00000      |                   <- occ
|    12  |   -.114947E+01    |   0.00000      |                   <- occ
|    13  |   -.957331E+00    |   0.00000      |                   <- occ
|    14  |   -.403244E+00    |   0.00000      |                   <- occ
|    15  |   0.121194E+01    |   0.00000      |                   <- occ
+--------+-------------------+----------------+                   <- occ
Spin 2, kpoint (-0.250000 -0.333333  0.333333 ) weight = 0.111111
+--------+-------------------+----------------+
|  Band  |   Eigenvalue      |    Occupancy   |                   <- occ
+--------+-------------------+----------------+                   <- occ
|     8  |   -.581589E+01    |   1.00000      |                   <- occ
|     9  |   -.207839E+01    |  0.156708E-12  |                   <- occ
|    10  |   -.199108E+01    |  0.133227E-14  |                   <- occ
|    11  |   -.191937E+01    |   0.00000      |                   <- occ
|    12  |   -.110623E+01    |   0.00000      |                   <- occ
|    13  |   -.107965E+01    |   0.00000      |                   <- occ
|    14  |   -.211262E+00    |   0.00000      |                   <- occ
|    15  |   0.160158E+01    |   0.00000      |                   <- occ
+--------+-------------------+----------------+                   <- occ
Spin 2, kpoint (-0.250000  0.000000  0.000000 ) weight = 0.111111
+--------+-------------------+----------------+
|  Band  |   Eigenvalue      |    Occupancy   |                   <- occ
+--------+-------------------+----------------+                   <- occ
|     8  |   -.576502E+01    |   1.00000      |                   <- occ
|     9  |   -.280878E+01    |  0.168419E-01  |                   <- occ
|    10  |   -.218605E+01    |  0.335099E-10  |                   <- occ
|    11  |   -.186561E+01    |   0.00000      |                   <- occ
|    12  |   -.970846E+00    |   0.00000      |                   <- occ
|    13  |   -.970845E+00    |   0.00000      |                   <- occ
|    14  |   -.603762E+00    |   0.00000      |                   <- occ
|    15  |   0.190984E+01    |   0.00000      |                   <- occ
+--------+-------------------+----------------+                   <- occ
Spin 2, kpoint (-0.250000  0.333333  0.000000 ) weight = 0.111111
+--------+-------------------+----------------+
|  Band  |   Eigenvalue      |    Occupancy   |                   <- occ
+--------+-------------------+----------------+                   <- occ
|     8  |   -.576082E+01    |   1.00000      |                   <- occ
|     9  |   -.241669E+01    |  0.488113E-06  |                   <- occ
|    10  |   -.208052E+01    |  0.175304E-12  |                   <- occ
|    11  |   -.189489E+01    |   0.00000      |                   <- occ
|    12  |   -.114947E+01    |   0.00000      |                   <- occ
|    13  |   -.957331E+00    |   0.00000      |                   <- occ
|    14  |   -.403244E+00    |   0.00000      |                   <- occ
|    15  |   0.121194E+01    |   0.00000      |                   <- occ
+--------+-------------------+----------------+                   <- occ
Spin 2, kpoint ( 0.250000 -0.333333  0.333333 ) weight = 0.111111
+--------+-------------------+----------------+
|  Band  |   Eigenvalue      |    Occupancy   |                   <- occ
+--------+-------------------+----------------+                   <- occ
|     8  |   -.581589E+01    |   1.00000      |                   <- occ
|     9  |   -.207839E+01    |  0.156708E-12  |                   <- occ
|    10  |   -.199108E+01    |  0.133227E-14  |                   <- occ
|    11  |   -.191937E+01    |   0.00000      |                   <- occ
|    12  |   -.110623E+01    |   0.00000      |                   <- occ
|    13  |   -.107965E+01    |   0.00000      |                   <- occ
|    14  |   -.211262E+00    |   0.00000      |                   <- occ
|    15  |   0.160158E+01    |   0.00000      |                   <- occ
+--------+-------------------+----------------+                   <- occ
  achieved Hubbard U energy convergence:   6.8817980823643321E-007
Have a nice day.

Writing analysis data to MnO.castep_bin

Writing model to MnO.check
                            Ewald force:
Species #   1 Atom #   1 Fx: 483.919     Fy:0.185030E-13 Fz:0.185420E-13 eV/A
Species #   2 Atom #   1 Fx:-483.919     Fy:-.184017E-13 Fz:-.185483E-13 eV/A

 Pseudo atomic calculation performed for O 2s2 2p4

 Converged in 24 iterations to a total energy of -431.0932 eV

 Pseudo atomic calculation performed for Mn 3s2 3p6 3d5 4s2

 Converged in 38 iterations to a total energy of -2902.3718 eV
  Accepting available Hubbard U occ matrix: 

     Hubbard U occupation numbers
     ----------------------------
Species   Ion   l  spin               occupancies
==================================================================
  Mn       1    2   up:   0.78  0.98  0.98  1.00  1.00
                    dn:   0.00  0.00  0.31  0.31  0.34
==================================================================

 Density matrix in cubic harmonics:
     0.9437     0.0000    -0.0000     0.0971    -0.0000
     0.0000     0.0000     0.0000     0.0000     0.0000
     0.0000     0.9997    -0.0000    -0.0000     0.0000
     0.0000     0.0000     0.0000     0.0000     0.0000
    -0.0000    -0.0000     0.9785     0.0000     0.0000
     0.0000     0.0000     0.0000     0.0000     0.0000
     0.0971    -0.0000     0.0000     0.8316     0.0000
     0.0000     0.0000     0.0000     0.0000     0.0000
    -0.0000     0.0000     0.0000     0.0000     0.9785
     0.0000     0.0000     0.0000     0.0000     0.0000
 Hermiticity:              (0.21662701268016249,0.0000000000000000)
 Density matrix in cubic harmonics:
     0.0855     0.0000    -0.0000    -0.1480    -0.0000
     0.0000     0.0000     0.0000     0.0000     0.0000
     0.0000     0.0000    -0.0000    -0.0000    -0.0000
     0.0000     0.0000     0.0000     0.0000     0.0000
    -0.0000    -0.0000     0.3116     0.0000     0.0000
     0.0000     0.0000     0.0000     0.0000     0.0000
    -0.1480    -0.0000     0.0000     0.2564     0.0000
     0.0000     0.0000     0.0000     0.0000     0.0000
    -0.0000    -0.0000     0.0000     0.0000     0.3116
     0.0000     0.0000     0.0000     0.0000     0.0000
 Hermiticity:              (0.65406405575957616,0.0000000000000000)
Hubbard U energy: Ha   =    0.033498447090
Hubbard U forces Ha/A    1     7.747877115931    4.724315314592    4.724315314592    0.000000000001    0.000000000000    0.000000000000
Hubbard U forces Ha/A    2     4.724315314592    4.724315314592    4.724315314592   -0.000000000045    0.000000000000    0.000000000000
  achieved Hubbard U energy convergence:   7.3498644949913272E-007

 *********************** Ewald forces ***********************
 *                                                          *
 *               Cartesian components (eV/A)                *
 * -------------------------------------------------------- *
 *                         x            y            z      *
 *                                                          *
 * O               1    483.91934      0.00000      0.00000 *
 * Mn              1   -483.91934     -0.00000     -0.00000 *
 *                                                          *
 ************************************************************

 ****************** Local potential forces ******************
 *                                                          *
 *               Cartesian components (eV/A)                *
 * -------------------------------------------------------- *
 *                         x            y            z      *
 *                                                          *
 * O               1   -453.58810      0.00000      0.00001 *
 * Mn              1    496.36421      0.00000      0.00000 *
 *                                                          *
 ************************************************************

 **************** Non-local potential forces ****************
 *                                                          *
 *               Cartesian components (eV/A)                *
 * -------------------------------------------------------- *
 *                         x            y            z      *
 *                                                          *
 * O               1    -30.09219     -0.00000     -0.00001 *
 * Mn              1    -13.28809     -0.00000      0.00000 *
 *                                                          *
 ************************************************************

 ************** External Efield and/or dipole ***************
 *                                                          *
 *               Cartesian components (eV/A)                *
 * -------------------------------------------------------- *
 *                         x            y            z      *
 *                                                          *
 * O               1      0.00000      0.00000      0.00000 *
 * Mn              1      0.00000      0.00000      0.00000 *
 *                                                          *
 ************************************************************

 ***************** DM correction to forces ******************
 *                                                          *
 *               Cartesian components (eV/A)                *
 * -------------------------------------------------------- *
 *                         x            y            z      *
 *                                                          *
 * O               1      0.00000      0.00000      0.00000 *
 * Mn              1      0.00000      0.00000      0.00000 *
 *                                                          *
 ************************************************************

 ***************** Hubbard potential forces *****************
 *                                                          *
 *               Cartesian components (eV/A)                *
 * -------------------------------------------------------- *
 *                         x            y            z      *
 *                                                          *
 * O               1      0.00000      0.00000      0.00000 *
 * Mn              1     -0.00000      0.00000      0.00000 *
 *                                                          *
 ************************************************************

 ************************** Forces **************************
 *                                                          *
 *               Cartesian components (eV/A)                *
 * -------------------------------------------------------- *
 *                         x            y            z      *
 *                                                          *
 * O               1      0.54114     -0.00000     -0.00000 *
 * Mn              1     -0.54114      0.00000      0.00000 *
 *                                                          *
 ************************************************************

 Pseudo atomic calculation performed for O 2s2 2p4

 Converged in 24 iterations to a total energy of -431.0932 eV

 Pseudo atomic calculation performed for Mn 3s2 3p6 3d5 4s2

 Converged in 38 iterations to a total energy of -2902.3718 eV
Charge spilling parameter for spin component 1 = 0.19%
Charge spilling parameter for spin component 2 = 0.16%

                   Orbital Populations                  
  ---------------------------------------------------------------
     Ion    Atom   Orbital              Up        Down      Spin
  ---------------------------------------------------------------
      O     1      S                    0.964     0.960     0.004
      O     1      Px                   0.664     0.741    -0.077
      O     1      Py                   0.898     0.733     0.165
      O     1      Pz                   0.898     0.733     0.165
     Mn     1      S                    0.999     1.000    -0.001
     Mn     1      Px                   0.998     0.998     0.000
     Mn     1      Py                   1.000     1.000     0.000
     Mn     1      Pz                   1.000     1.000     0.000
     Mn     1      Dzz                  0.926     0.065     0.861
     Mn     1      Dzy                  1.000     0.000     1.000
     Mn     1      Dzx                  0.970     0.244     0.726
     Mn     1      Dxx-yy               0.779     0.195     0.585
     Mn     1      Dxy                  0.970     0.244     0.726
     Mn     1      S                    0.622     0.022     0.600
     Mn     1      Px                   0.040     0.022     0.018
     Mn     1      Py                   0.134     0.023     0.112
     Mn     1      Pz                   0.134     0.023     0.112
  ---------------------------------------------------------------
                           Total:      12.998     8.002     4.996
  ---------------------------------------------------------------
The total projected populations are: spin up   12.998  -0.000, spin down    8.002  -0.000, total   21.000  -0.000

     Atomic Populations (Mulliken)
     -----------------------------
Species          Ion Spin      s      p      d      f     Total  Charge(e)   Spin(hbar/2)
=========================================================================================
  O               1   up:     0.96   2.46   0.00   0.00   3.42    -0.59        0.26
                  1   dn:     0.96   2.21   0.00   0.00   3.17
  Mn              1   up:     1.62   3.31   4.65   0.00   9.57     0.59        4.74
                  1   dn:     1.02   3.06   0.75   0.00   4.83
=========================================================================================

                 Bond                   Population        Spin       Length (A)
================================================================================
               O 1 -- Mn 1                   0.64        -0.03          1.60000
================================================================================


Writing analysis data to MnO.castep_bin

Writing model to MnO.check
Initialisation time =     13.12 s
Calculation time    =     15.98 s
Finalisation time   =      0.12 s
Total time          =     29.23 s
Peak Memory Use     = 519164 kB
  
Overall parallel efficiency rating: Good (77%)                                  
  
Data was distributed by:-
k-point (2-way); efficiency rating: Good (77%)                                  
  
Parallel notes:
1) Calculation only took 29.1 s, so efficiency estimates may be inaccurate.     
2) k-points were not fully distributed, there were 5 k-points per process.      
  
Efficiencies are estimated from the ratio of communication time to total time,
and do not include all the effects of serial operations or load imbalance.
