 +-------------------------------------------------+
 |                                                 |
 |      CCC   AA    SSS  TTTTT  EEEEE  PPPP        |
 |     C     A  A  S       T    E      P   P       |
 |     C     AAAA   SS     T    EEE    PPPP        |
 |     C     A  A     S    T    E      P           |
 |      CCC  A  A  SSS     T    EEEEE  P           |
 |                                                 |
 +-------------------------------------------------+
 |                                                 |
 | Welcome to Academic Release CASTEP version 19.11|          
 | Ab Initio Total Energy Program                  |
 |                                                 |
 | Authors:                                        |
 | M. Segall, M. Probert, C. Pickard, P. Hasnip,   |
 | S. Clark, K. Refson, J. R. Yates, M. Payne      |
 |                                                 |
 | Contributors:                                   |
 | P. Lindan, P. Haynes, J. White, V. Milman,      |
 | N. Govind, M. Gibson, P. Tulip, V. Cocula,      |
 | B. Montanari, D. Quigley, M. Glover,            |
 | L. Bernasconi, A. Perlov, M. Plummer,           |
 | E. McNellis, J. Meyer, J. Gale, D. Jochym       |
 | J. Aarons, B. Walker, R. Gillen, D. Jones       |
 | T. Green, I. J. Bush, C. J. Armstrong,          |
 | E. J. Higgins, E. L. Brown, M. S. McFly,        |
 | J. Wilkins, B-C. Shih, P. J. P. Byrne           |
 |                                                 |
 | Copyright (c) 2000 - 2018                       |
 |                                                 |
 |     Distributed under the terms of an           |
 |     Agreement between the United Kingdom        |
 |     Car-Parrinello (UKCP) Consortium,           |
 |     Daresbury Laboratory and Accelrys, Inc.     |
 |                                                 |
 | Please cite                                     |
 |                                                 |
 |     "First principles methods using CASTEP"     |
 |                                                 |
 |         Zeitschrift fuer Kristallographie       |
 |           220(5-6) pp. 567-570 (2005)           |
 |                                                 |
 | S. J. Clark, M. D. Segall, C. J. Pickard,       |
 | P. J. Hasnip, M. J. Probert, K. Refson,         |
 | M. C. Payne                                     |
 |                                                 |
 |       in all publications arising from          |
 |              your use of CASTEP                 |
 |                                                 |
 +-------------------------------------------------+
 |                                                 |
 |              http://www.castep.org              |
 |                                                 |
 +-------------------------------------------------+



 Compiled for linux_x86_64_gfortran7.0 on Mon, 30 Mar 2020 12:17:21 +0100
 from code version e1fe0d666396+ Castep191_branch Thu, 24 Oct 2019 13:54:03 +0100
 Compiler: GNU Fortran 7.5.0; Optimisation: fast
 MATHLIBS: Intel MKL(2019.0.5) (LAPACK version 3.7.0)
 FFT Lib : mkl
 Fundamental constants values: CODATA 2014

 Run started: Wed, 04 Nov 2020 19:33:02 +0000

 ******************************* User Parameters *******************************
iprint              : 3          # verbosity control (I)
reuse               : base.check # reuse filename (S)
writebib            : F          # output BibTeX references (L)
writeotfg           : F          # output OTFG files (L)
writecstesp         : F          # output cst_esp file (L)
spin                : 5.0000000  # net spin (R)
spinpolarised       : T          # spin polarised (L)
%block develcode    :            # developers code (B)
iprintu=8,
%endblock develcode :            # developers code (B)

 *******************************************************************************
  

 Atomic calculation performed for O: 1s2 2s2 2p4

 Converged in 60 iterations to an ae energy of -2027.926 eV


 Atomic calculation performed for Mn: 1s2 2s2 2p6 3s2 3p6 3d5 4s2

 Converged in 96 iterations to an ae energy of -31460.102 eV


 Pseudo atomic calculation performed for O 2s2 2p4

 Converged in 24 iterations to a total energy of -431.0932 eV

 Pseudo atomic calculation performed for Mn 3s2 3p6 3d5 4s2

 Converged in 38 iterations to a total energy of -2902.3718 eV
Initialising basis set.

Standard grid dimensions:  48  36  36
Fine grid dimensions:      48  36  36

Plane wave load balancing: max   5869 min   5847 average   5864
True cut-off energy of basis :  22.996
 Reusing data from model file base.check
 Number of symmetry ops  =           1

 ******************************* User Parameters *******************************
iprint              : 3          # verbosity control (I)
reuse               : base.check # reuse filename (S)
writebib            : F          # output BibTeX references (L)
writeotfg           : F          # output OTFG files (L)
writecstesp         : F          # output cst_esp file (L)
spin                : 5.0000000  # net spin (R)
spinpolarised       : T          # spin polarised (L)
%block develcode    :            # developers code (B)
iprintu=8,
%endblock develcode :            # developers code (B)

 *******************************************************************************
  

 Atomic calculation performed for O: 1s2 2s2 2p4

 Converged in 60 iterations to an ae energy of -2027.926 eV


 Atomic calculation performed for Mn: 1s2 2s2 2p6 3s2 3p6 3d5 4s2

 Converged in 96 iterations to an ae energy of -31460.102 eV


 Pseudo atomic calculation performed for O 2s2 2p4

 Converged in 24 iterations to a total energy of -431.0932 eV

 Pseudo atomic calculation performed for Mn 3s2 3p6 3d5 4s2

 Converged in 38 iterations to a total energy of -2902.3718 eV
Initialising basis set.

Standard grid dimensions:  48  36  36
Fine grid dimensions:      48  36  36

Plane wave load balancing: max   5869 min   5847 average   5864
True cut-off energy of basis :  22.996
K-point set unchanged, read in wavefunction.
Reusing density from model file.
 Calculation parallelised over 2 processes.
 Data is distributed by k-point(2-way)

 ************************************ Title ************************************
 

 ***************************** General Parameters ******************************
  
 output verbosity                               : extreme (3)
 reusing                                        : base.check
 write checkpoint data to                       : MnO.check
 type of calculation                            : single point energy
 stress calculation                             : off
 density difference calculation                 : off
 electron localisation func (ELF) calculation   : off
 Hirshfeld analysis                             : off
 unlimited duration calculation
 timing information                             : on
 memory usage estimate                          : on
 write extra output files                       : on
 write final potential to formatted file        : off
 write final density to formatted file          : off
 write BibTeX reference list                    : off
 write OTFG pseudopotential files               : off
 write electrostatic potential file             : off
 write bands file                               : on
 checkpoint writing                             : both castep_bin and check files
  
 output         length unit                     : A
 output           mass unit                     : amu
 output           time unit                     : ps
 output         charge unit                     : e
 output           spin unit                     : hbar/2
 output         energy unit                     : eV
 output          force unit                     : eV/A
 output       velocity unit                     : A/ps
 output       pressure unit                     : GPa
 output     inv_length unit                     : 1/A
 output      frequency unit                     : cm-1
 output force constant unit                     : eV/A**2
 output         volume unit                     : A**3
 output   IR intensity unit                     : (D/A)**2/amu
 output         dipole unit                     : D
 output         efield unit                     : eV/A/e
 output        entropy unit                     : J/mol/K
  
 wavefunctions paging                           : none
 random number generator seed                   : randomised (193309739)
 data distribution                              : optimal for this architecture
 optimization strategy                          : balance speed and memory

 *********************** Exchange-Correlation Parameters ***********************
  
 using functional                               : Local Density Approximation
 relativistic treatment                         : Koelling-Harmon
 DFT+D: Semi-empirical dispersion correction    : off

 ************************* Pseudopotential Parameters **************************
  
 pseudopotential representation                 : reciprocal space
 <beta|phi> representation                      : reciprocal space
 spin-orbit coupling                            : off

 **************************** Basis Set Parameters *****************************
  
 basis set accuracy                             : FINE
 plane wave basis set cut-off                   :   625.8619   eV
 size of standard grid                          :     1.7500
 size of   fine   gmax                          :    22.4293   1/A
 largest prime factor in FFT                    :          5
 finite basis set correction                    : none

 **************************** Electronic Parameters ****************************
  
 number of  electrons                           :  21.00    
 net charge of system                           :  0.000    
 net spin   of system                           :  5.000    
 number of  up  spins                           :  13.00    
 number of down spins                           :  8.000    
 treating system as spin-polarized
 number of bands                                :         17

 ********************* Electronic Minimization Parameters **********************
  
 Method: Treating system as metallic with density mixing treatment of electrons,
         and number of  SD  steps               :          1
         and number of  CG  steps               :          4
  
 total energy / atom convergence tol.           : 0.1000E-04   eV
 eigen-energy convergence tolerance             : 0.1000E-05   eV
 max force / atom convergence tol.              : ignored
 convergence tolerance window                   :          3   cycles
 max. number of SCF cycles                      :         30
 number of fixed-spin iterations                :         10
 smearing scheme                                : Gaussian
 smearing width                                 : 0.2000       eV
 Fermi energy convergence tolerance             : 0.2721E-13   eV
 periodic dipole correction                     : NONE

 ************************** Density Mixing Parameters **************************
  
 density-mixing scheme                          : Broyden
 max. length of mixing history                  :         20
 charge density mixing amplitude                : 0.8000    
   spin density mixing amplitude                :  2.000    
 charge density mixing g-vector                 :  1.500       1/A
   spin density mixing g-vector                 :  1.500       1/A

 *********************** Population Analysis Parameters ************************
  
 Population analysis with cutoff                :  3.000       A
 Population analysis output                     : summary and pdos components

 ******************************* Developer Code ********************************
  
 iprintu=8,

 *******************************************************************************
  

                           -------------------------------
                                      Unit Cell
                           -------------------------------
        Real Lattice(A)                      Reciprocal Lattice(1/A)
     6.6000000     0.0000000     0.0000000        0.951997774   0.000000000   0.000000000
     0.0000000     5.0000000     0.0000000        0.000000000   1.256637061   0.000000000
     0.0000000     0.0000000     5.0000000        0.000000000   0.000000000   1.256637061

                       Lattice parameters(A)       Cell Angles
                    a =      6.600000          alpha =   90.000000
                    b =      5.000000          beta  =   90.000000
                    c =      5.000000          gamma =   90.000000

                       Current cell volume =           165.000000       A**3
                                   density =             0.429924   AMU/A**3
                                           =             0.713905     g/cm^3

                           -------------------------------
                                     Cell Contents
                           -------------------------------
                         Total number of ions in cell =    2
                      Total number of species in cell =    2
                        Max number of any one species =    1

            xxxxxxxxxxxxxxxxxxxxxxxxxxxxxxxxxxxxxxxxxxxxxxxxxxxxxxxxxxxx
            x  Element    Atom        Fractional coordinates of atoms  x
            x            Number           u          v          w      x
            x----------------------------------------------------------x
            x  O            1         0.621212   0.500000   0.500000   x 
            x  Mn           1         0.378788   0.500000   0.500000   x 
            xxxxxxxxxxxxxxxxxxxxxxxxxxxxxxxxxxxxxxxxxxxxxxxxxxxxxxxxxxxx


                         No user defined ionic velocities

                           -------------------------------
                                   Details of Species
                           -------------------------------

                               Mass of species in AMU
                                    O   15.9994000
                                    Mn   54.9380500

                          Electric Quadrupole Moment (Barn)
                                    O   -0.0255800 Isotope 17
                                    Mn    0.3300000 Isotope 55


         Quantisation axis:    0.00000   0.00000   1.00000

         Units for Hubbard U values are eV
         xxxxxxxxxxxxxxxxxxxxxxxxxxxxxxxxxxxxxxxxxxxxxxxxxxxxxxxxxxxxxxxxxxxx
         |  Element     Atom     Hubbard U   values by orbital type         |
         |             Number      s          p          d          f       |
         |------------------------------------------------------------------|
         |O             1         0.00000    0.00000    0.00000    0.00000  |
         |Mn            1         0.00000    0.00000    0.00000    0.00000  |
         xxxxxxxxxxxxxxxxxxxxxxxxxxxxxxxxxxxxxxxxxxxxxxxxxxxxxxxxxxxxxxxxxxxx


                          Files used for pseudopotentials:
                                    O 2|1.1|17|20|23|20:21(qc=8)
                                    Mn 3|1.8|1.8|0.6|12|14|16|30U:40:31:32(qc=7)

                           -------------------------------
                              k-Points For BZ Sampling
                           -------------------------------
                       MP grid size for SCF calculation is  2  3  3
                            with an offset of   0.000  0.000  0.000
                       Number of kpoints used =             9

             +++++++++++++++++++++++++++++++++++++++++++++++++++++++
             +  Number       Fractional coordinates        Weight  +
             +-----------------------------------------------------+
             +     1  -0.250000  -0.333333  -0.333333   0.1111111  +
             +     2  -0.250000  -0.333333   0.333333   0.1111111  +
             +     3  -0.250000   0.000000  -0.333333   0.1111111  +
             +     4  -0.250000   0.000000   0.000000   0.1111111  +
             +     5  -0.250000   0.000000   0.333333   0.1111111  +
             +     6  -0.250000   0.333333   0.000000   0.1111111  +
             +     7  -0.250000   0.333333   0.333333   0.1111111  +
             +     8   0.250000  -0.333333   0.333333   0.1111111  +
             +     9   0.250000   0.333333   0.000000   0.1111111  +
             +++++++++++++++++++++++++++++++++++++++++++++++++++++++

                           -------------------------------
                               Symmetry and Constraints
                           -------------------------------

                      Maximum deviation from symmetry =  0.00000         ANG

                      Number of symmetry operations   =           1
                      Number of ionic constraints     =           3
                      Point group of crystal =     1: C1, 1, 1
                      Space group of crystal =    99: P4mm, P 4 -2

                    1 rotation    
                 (   1.00000000000   0.00000000000   0.00000000000 )
                 (   0.00000000000   1.00000000000   0.00000000000 )
                 (   0.00000000000   0.00000000000   1.00000000000 )
                    1 displacement
                 (   0.00000000000   0.00000000000   0.00000000000 )
                      symmetry related atoms: 
             O:    1
             Mn:    1


                         Centre of mass is constrained

            xxxxxxxxxxxxxxxxxxxxxxxxxxxxxxxxxxxxxxxxxxxxxxxxxxxxxxxxxxxxxx....
            x  Species       atom   co-ordinate  constraints.....         
            x-------------------------------------------------------------....
            x O                 1       x        29165.1220      0.0000      0.0000
            x O                 1       y            0.0000  29165.1220      0.0000
            x O                 1       z            0.0000      0.0000  29165.1220
            x Mn                1       x       100145.9388      0.0000      0.0000
            x Mn                1       y            0.0000 100145.9388      0.0000
            x Mn                1       z            0.0000      0.0000 100145.9388
            xxxxxxxxxxxxxxxxxxxxxxxxxxxxxxxxxxxxxxxxxxxxxxxxxxxxxxxxxxxxxx....

                         Number of cell constraints= 0
                         Cell constraints are:  1 2 3 4 5 6

                         External pressure/stress (GPa)
                          0.00000   0.00000   0.00000
                                    0.00000   0.00000
                                              0.00000
Density mixing plane wave load balancing: max      0 min      0 average      0
  
+---------------- MEMORY AND SCRATCH DISK ESTIMATES PER PROCESS --------------+
|                                                     Memory          Disk    |
| Baseline code, static data and system overhead      354.0 MB         0.0 MB |
| BLAS internal memory storage                          0.0 MB         0.0 MB |
| Model and support data                               67.2 MB       110.4 MB |
| Electronic energy minimisation requirements          51.6 MB         0.0 MB |
| Force calculation requirements                       13.8 MB         0.0 MB |
|                                               ----------------------------- |
| Approx. total storage required per process          472.8 MB       110.4 MB |
|                                                                             |
| Requirements will fluctuate during execution and may exceed these estimates |
+-----------------------------------------------------------------------------+
Calculating total energy with cut-off of  625.862 eV.
electronic_minimisation: Initialising

 Pseudo atomic calculation performed for O 2s2 2p4

 Converged in 24 iterations to a total energy of -431.0932 eV

 Pseudo atomic calculation performed for Mn 3s2 3p6 3d5 4s2

 Converged in 38 iterations to a total energy of -2902.3718 eV
  Initializing Hubbard U occ matrix: 

     Hubbard U occupation numbers
     ----------------------------
Species   Ion   l  spin               occupancies
==================================================================
  Mn       1    2   up:   0.00  0.00  1.00  1.00  1.00
                    dn:   0.00  0.00  1.00  1.00  1.00
==================================================================

electronic_minimisation: Initialising density mixing
 Initialising mixing density basis set.
Density mixing plane wave load balancing: max   5871 min   5871 average   5871
Calculating Ewald energy for ionic configuration
              Ewald: real-space energy =     359.826811 eV
        Ewald: reciprocal-space energy =      93.920754 eV
         Ewald: (sum_charge)**2 Energy =     459.468501 eV
         Ewald: (sum_charge**2) Energy =     769.135141 eV
                          Ewald Energy =    -774.856077 eV
Calculating non-Coulombic energy for ionic configuration
Symmetrising density
Calculating local potential
Calculating Hubbard U potential
 Density matrix in cubic harmonics:
     1.0000     0.0000     0.0000     0.0000     0.0000
     0.0000     0.0000     0.0000     0.0000     0.0000
     0.0000     0.0000     0.0000     0.0000     0.0000
     0.0000     0.0000     0.0000     0.0000     0.0000
     0.0000     0.0000     0.0000     0.0000     0.0000
     0.0000     0.0000     0.0000     0.0000     0.0000
     0.0000     0.0000     0.0000     1.0000     0.0000
     0.0000     0.0000     0.0000     0.0000     0.0000
     0.0000     0.0000     0.0000     0.0000     1.0000
     0.0000     0.0000     0.0000     0.0000     0.0000
 Hermiticity:        (-4.44089209850062616E-016,0.0000000000000000)
 Density matrix in cubic harmonics:
     1.0000     0.0000     0.0000     0.0000     0.0000
     0.0000     0.0000     0.0000     0.0000     0.0000
     0.0000     0.0000     0.0000     0.0000     0.0000
     0.0000     0.0000     0.0000     0.0000     0.0000
     0.0000     0.0000     0.0000     0.0000     0.0000
     0.0000     0.0000     0.0000     0.0000     0.0000
     0.0000     0.0000     0.0000     1.0000     0.0000
     0.0000     0.0000     0.0000     0.0000     0.0000
     0.0000     0.0000     0.0000     0.0000     1.0000
     0.0000     0.0000     0.0000     0.0000     0.0000
 Hermiticity:        (-4.44089209850062616E-016,0.0000000000000000)
Calculating non-local weights
Calculating KE and non-local eigenvalues to find total energy
 
Init
Exchange-correlation energy      =      -499.07913191541501874 eV
+Hartree energy                  =      2055.86480228865912068 eV
+Local pseudopotential energy    =     -5072.04198973965321784 eV
----------------------------------
Potential energy (total)         =     -3515.25631936638410480 eV
                                  
+Hubbard U energy                =         1.91999999999999993 eV
+Kinetic energy                  =       776.91409201055114409 eV
+Non-local energy                =       152.02656221898419631 eV
+Electronic entropy term (-TS)   =         0.00000000000000000 eV
+Ewald energy (const)            =      -774.85607651874397561 eV
+non-Coulombic energy (const)    =        13.80612138473854067 eV
----------------------------------
Total free energy (E-TS)         =     -3345.44562027085385125 eV
 
NB est. 0K energy (E-0.5TS)      =     -3345.44562027085385125 eV
 
(XC correction to eigenvalue sum =        44.01690523340165129 eV)
(Hubbard U correction to eigenvalu         0.00000003000000000 eV)
 
------------------------------------------------------------------------ <-- SCF
SCF loop      Energy           Fermi           Energy gain       Timer   <-- SCF
                               energy          per atom          (sec)   <-- SCF
------------------------------------------------------------------------ <-- SCF
Initial  -3.34544562E+003  0.00000000E+000                        14.86  <-- SCF
Starting SCF cycle     1 of up to    30
 no. bands in each block=           8
Kinetic eigenvalue #   1 =     0.38348966E+02
Kinetic eigenvalue #   2 =     0.39990483E+02
Kinetic eigenvalue #   3 =     0.39990481E+02
Kinetic eigenvalue #   4 =     0.39595183E+02
Kinetic eigenvalue #   5 =     0.25112526E+02
Kinetic eigenvalue #   6 =     0.42186730E+02
Kinetic eigenvalue #   7 =     0.37391956E+02
Kinetic eigenvalue #   8 =     0.37412407E+02
Kinetic eigenvalue #   9 =     0.37900587E+02
Kinetic eigenvalue #  10 =     0.37455926E+02
Kinetic eigenvalue #  11 =     0.23372304E+02
Kinetic eigenvalue #  12 =     0.38336692E+02
Kinetic eigenvalue #  13 =     0.38452582E+02
Kinetic eigenvalue #  14 =     0.24719286E+02
Kinetic eigenvalue #  15 =     0.13655775E+02
Kinetic eigenvalue #  16 =     0.14273377E+02
Kinetic eigenvalue #  17 =     0.77296045E+01
 Calculating the R matrix for the precon Sinv operator
 Diagonalising expanded subspace
 Copying updated data back
eigenvalue    1 init= -83.96     fin= -83.96     change= 0.2191E-08
eigenvalue    2 init= -53.14     fin= -53.14     change= 0.7832E-10
eigenvalue    3 init= -53.14     fin= -53.14     change= 0.6860E-10
eigenvalue    4 init= -52.98     fin= -52.98     change= 0.5357E-08
eigenvalue    5 init= -20.18     fin= -20.18     change= 0.1078E-04
eigenvalue    6 init= -7.507     fin= -7.507     change= 0.7423E-04
eigenvalue    7 init= -7.037     fin= -7.037     change= 0.1449E-04
eigenvalue    8 init= -7.036     fin= -7.036     change= 0.1431E-04
 Checking convergence criteria
 Diagonalising expanded subspace
 Copying updated data back
eigenvalue    1 init= -83.96     fin= -83.96     change= 0.2205E-08
eigenvalue    2 init= -53.14     fin= -53.14     change= 0.7919E-10
eigenvalue    3 init= -53.14     fin= -53.14     change= 0.6905E-10
eigenvalue    4 init= -52.98     fin= -52.98     change= 0.5684E-08
eigenvalue    5 init= -20.18     fin= -20.18     change= 0.1138E-04
eigenvalue    6 init= -7.507     fin= -7.507     change= 0.7930E-04
eigenvalue    7 init= -7.037     fin= -7.037     change= 0.1567E-04
eigenvalue    8 init= -7.036     fin= -7.036     change= 0.1545E-04
 Checking convergence criteria
 Diagonalising expanded subspace
 Copying updated data back
eigenvalue    9 init= -5.531     fin= -5.531     change= 0.3795E-06
eigenvalue   10 init= -5.361     fin= -5.361     change= 0.1789E-05
eigenvalue   11 init= -4.158     fin= -4.158     change= 0.4972E-04
eigenvalue   12 init= -3.529     fin= -3.529     change= 0.1299E-04
eigenvalue   13 init= -3.502     fin= -3.502     change= 0.2187E-04
eigenvalue   14 init= -1.725     fin= -1.726     change= 0.5033E-04
eigenvalue   15 init= 0.3069     fin= 0.3069     change= 0.1704E-05
eigenvalue   16 init= 0.4376     fin= 0.4376     change= 0.9803E-06
 Checking convergence criteria
 Diagonalising expanded subspace
 Copying updated data back
eigenvalue    9 init= -5.531     fin= -5.531     change= 0.3805E-06
eigenvalue   10 init= -5.361     fin= -5.361     change= 0.1984E-05
eigenvalue   11 init= -4.158     fin= -4.158     change= 0.5494E-04
eigenvalue   12 init= -3.529     fin= -3.529     change= 0.1454E-04
eigenvalue   13 init= -3.502     fin= -3.502     change= 0.2422E-04
eigenvalue   14 init= -1.725     fin= -1.726     change= 0.5726E-04
eigenvalue   15 init= 0.3069     fin= 0.3069     change= 0.2284E-05
eigenvalue   16 init= 0.4376     fin= 0.4376     change= 0.1192E-05
 Checking convergence criteria
 Diagonalising expanded subspace
 Copying updated data back
eigenvalue   17 init=  2.643     fin=  2.643     change= 0.3923E-05
 Checking convergence criteria
 Diagonalising expanded subspace
 Copying updated data back
eigenvalue   17 init=  2.643     fin=  2.643     change= 0.6773E-05
 Checking convergence criteria
 Diagonalising expanded subspace
 Copying updated data back
eigenvalue   17 init=  2.643     fin=  2.643     change= 0.8959E-05
 Checking convergence criteria
 Diagonalising expanded subspace
 Copying updated data back
eigenvalue   17 init=  2.643     fin=  2.643     change= 0.1078E-04
 Checking convergence criteria
 Diagonalising expanded subspace
 Copying updated data back
eigenvalue   17 init=  2.643     fin=  2.643     change= 0.1191E-04
 Checking convergence criteria
 no. bands in each block=           8
Kinetic eigenvalue #   1 =     0.38348939E+02
Kinetic eigenvalue #   2 =     0.39990472E+02
Kinetic eigenvalue #   3 =     0.39990660E+02
Kinetic eigenvalue #   4 =     0.39595175E+02
Kinetic eigenvalue #   5 =     0.25099043E+02
Kinetic eigenvalue #   6 =     0.42122292E+02
Kinetic eigenvalue #   7 =     0.37333011E+02
Kinetic eigenvalue #   8 =     0.37797759E+02
Kinetic eigenvalue #   9 =     0.37459158E+02
Kinetic eigenvalue #  10 =     0.37726085E+02
Kinetic eigenvalue #  11 =     0.20289061E+02
Kinetic eigenvalue #  12 =     0.37545413E+02
Kinetic eigenvalue #  13 =     0.41168583E+02
Kinetic eigenvalue #  14 =     0.25570923E+02
Kinetic eigenvalue #  15 =     0.13556301E+02
Kinetic eigenvalue #  16 =     0.80528776E+01
Kinetic eigenvalue #  17 =     0.17119358E+02
 Calculating the R matrix for the precon Sinv operator
 Diagonalising expanded subspace
 Copying updated data back
eigenvalue    1 init= -83.96     fin= -83.96     change= 0.2371E-08
eigenvalue    2 init= -53.14     fin= -53.14     change= 0.7327E-10
eigenvalue    3 init= -53.14     fin= -53.14     change= 0.5994E-10
eigenvalue    4 init= -52.98     fin= -52.98     change= 0.4830E-08
eigenvalue    5 init= -20.18     fin= -20.18     change= 0.9661E-05
eigenvalue    6 init= -7.510     fin= -7.510     change= 0.6659E-04
eigenvalue    7 init= -7.041     fin= -7.041     change= 0.1549E-04
eigenvalue    8 init= -7.004     fin= -7.004     change= 0.8322E-05
 Checking convergence criteria
 Diagonalising expanded subspace
 Copying updated data back
eigenvalue    1 init= -83.96     fin= -83.96     change= 0.2398E-08
eigenvalue    2 init= -53.14     fin= -53.14     change= 0.7390E-10
eigenvalue    3 init= -53.14     fin= -53.14     change= 0.6017E-10
eigenvalue    4 init= -52.98     fin= -52.98     change= 0.5122E-08
eigenvalue    5 init= -20.18     fin= -20.18     change= 0.1016E-04
eigenvalue    6 init= -7.510     fin= -7.510     change= 0.7100E-04
eigenvalue    7 init= -7.041     fin= -7.041     change= 0.1670E-04
eigenvalue    8 init= -7.004     fin= -7.004     change= 0.8838E-05
 Checking convergence criteria
 Diagonalising expanded subspace
 Copying updated data back
eigenvalue    9 init= -5.563     fin= -5.563     change= 0.6935E-06
eigenvalue   10 init= -5.343     fin= -5.343     change= 0.1196E-05
eigenvalue   11 init= -4.421     fin= -4.421     change= 0.3982E-04
eigenvalue   12 init= -3.550     fin= -3.550     change= 0.1838E-04
eigenvalue   13 init= -3.399     fin= -3.399     change= 0.7087E-05
eigenvalue   14 init= -1.908     fin= -1.908     change= 0.4991E-04
eigenvalue   15 init= -.5740E-01 fin= -.5740E-01 change= 0.2082E-05
eigenvalue   16 init=  2.028     fin=  2.028     change= 0.7622E-05
 Checking convergence criteria
 Diagonalising expanded subspace
 Copying updated data back
eigenvalue    9 init= -5.563     fin= -5.563     change= 0.7151E-06
eigenvalue   10 init= -5.343     fin= -5.343     change= 0.1301E-05
eigenvalue   11 init= -4.421     fin= -4.421     change= 0.4455E-04
eigenvalue   12 init= -3.550     fin= -3.550     change= 0.2061E-04
eigenvalue   13 init= -3.399     fin= -3.399     change= 0.7625E-05
eigenvalue   14 init= -1.908     fin= -1.908     change= 0.5778E-04
eigenvalue   15 init= -.5740E-01 fin= -.5740E-01 change= 0.2659E-05
eigenvalue   16 init=  2.028     fin=  2.028     change= 0.1124E-04
 Checking convergence criteria
 Diagonalising expanded subspace
 Copying updated data back
eigenvalue    9 init= -5.563     fin= -5.563     change= 0.7197E-06
eigenvalue   10 init= -5.343     fin= -5.343     change= 0.1301E-05
eigenvalue   11 init= -4.421     fin= -4.421     change= 0.4491E-04
eigenvalue   12 init= -3.550     fin= -3.550     change= 0.2079E-04
eigenvalue   13 init= -3.399     fin= -3.399     change= 0.7638E-05
eigenvalue   14 init= -1.908     fin= -1.908     change= 0.5879E-04
eigenvalue   15 init= -.5740E-01 fin= -.5740E-01 change= 0.2778E-05
eigenvalue   16 init=  2.028     fin=  2.028     change= 0.1311E-04
 Checking convergence criteria
 Diagonalising expanded subspace
 Copying updated data back
eigenvalue   17 init=  2.485     fin=  2.485     change= 0.2427E-06
 Checking convergence criteria
 no. bands in each block=           8
Kinetic eigenvalue #   1 =     0.38348954E+02
Kinetic eigenvalue #   2 =     0.39990472E+02
Kinetic eigenvalue #   3 =     0.39990660E+02
Kinetic eigenvalue #   4 =     0.39595175E+02
Kinetic eigenvalue #   5 =     0.25099043E+02
Kinetic eigenvalue #   6 =     0.42122290E+02
Kinetic eigenvalue #   7 =     0.37333009E+02
Kinetic eigenvalue #   8 =     0.37797753E+02
Kinetic eigenvalue #   9 =     0.37459157E+02
Kinetic eigenvalue #  10 =     0.37726085E+02
Kinetic eigenvalue #  11 =     0.20289048E+02
Kinetic eigenvalue #  12 =     0.37545412E+02
Kinetic eigenvalue #  13 =     0.41168606E+02
Kinetic eigenvalue #  14 =     0.25570897E+02
Kinetic eigenvalue #  15 =     0.13556246E+02
Kinetic eigenvalue #  16 =     0.80526225E+01
Kinetic eigenvalue #  17 =     0.17119021E+02
 Calculating the R matrix for the precon Sinv operator
 Diagonalising expanded subspace
 Copying updated data back
eigenvalue    1 init= -83.96     fin= -83.96     change= 0.2233E-08
eigenvalue    2 init= -53.14     fin= -53.14     change= 0.7305E-10
eigenvalue    3 init= -53.14     fin= -53.14     change= 0.5984E-10
eigenvalue    4 init= -52.98     fin= -52.98     change= 0.4830E-08
eigenvalue    5 init= -20.18     fin= -20.18     change= 0.9664E-05
eigenvalue    6 init= -7.510     fin= -7.510     change= 0.6667E-04
eigenvalue    7 init= -7.041     fin= -7.041     change= 0.1548E-04
eigenvalue    8 init= -7.004     fin= -7.004     change= 0.8323E-05
 Checking convergence criteria
 Diagonalising expanded subspace
 Copying updated data back
eigenvalue    1 init= -83.96     fin= -83.96     change= 0.2251E-08
eigenvalue    2 init= -53.14     fin= -53.14     change= 0.7359E-10
eigenvalue    3 init= -53.14     fin= -53.14     change= 0.6004E-10
eigenvalue    4 init= -52.98     fin= -52.98     change= 0.5123E-08
eigenvalue    5 init= -20.18     fin= -20.18     change= 0.1017E-04
eigenvalue    6 init= -7.510     fin= -7.510     change= 0.7105E-04
eigenvalue    7 init= -7.041     fin= -7.041     change= 0.1670E-04
eigenvalue    8 init= -7.004     fin= -7.004     change= 0.8837E-05
 Checking convergence criteria
 Diagonalising expanded subspace
 Copying updated data back
eigenvalue    9 init= -5.563     fin= -5.563     change= 0.6937E-06
eigenvalue   10 init= -5.343     fin= -5.343     change= 0.1196E-05
eigenvalue   11 init= -4.421     fin= -4.421     change= 0.3982E-04
eigenvalue   12 init= -3.550     fin= -3.550     change= 0.1842E-04
eigenvalue   13 init= -3.399     fin= -3.399     change= 0.7100E-05
eigenvalue   14 init= -1.908     fin= -1.908     change= 0.4998E-04
eigenvalue   15 init= -.5740E-01 fin= -.5740E-01 change= 0.2067E-05
eigenvalue   16 init=  2.028     fin=  2.028     change= 0.7627E-05
 Checking convergence criteria
 Diagonalising expanded subspace
 Copying updated data back
eigenvalue    9 init= -5.563     fin= -5.563     change= 0.7149E-06
eigenvalue   10 init= -5.343     fin= -5.343     change= 0.1300E-05
eigenvalue   11 init= -4.421     fin= -4.421     change= 0.4447E-04
eigenvalue   12 init= -3.550     fin= -3.550     change= 0.2061E-04
eigenvalue   13 init= -3.399     fin= -3.399     change= 0.7632E-05
eigenvalue   14 init= -1.908     fin= -1.908     change= 0.5770E-04
eigenvalue   15 init= -.5740E-01 fin= -.5740E-01 change= 0.2599E-05
eigenvalue   16 init=  2.028     fin=  2.028     change= 0.1103E-04
 Checking convergence criteria
 Diagonalising expanded subspace
 Copying updated data back
eigenvalue    9 init= -5.563     fin= -5.563     change= 0.7198E-06
eigenvalue   10 init= -5.343     fin= -5.343     change= 0.1300E-05
eigenvalue   11 init= -4.421     fin= -4.421     change= 0.4487E-04
eigenvalue   12 init= -3.550     fin= -3.550     change= 0.2082E-04
eigenvalue   13 init= -3.399     fin= -3.399     change= 0.7634E-05
eigenvalue   14 init= -1.908     fin= -1.908     change= 0.5875E-04
eigenvalue   15 init= -.5740E-01 fin= -.5740E-01 change= 0.2724E-05
eigenvalue   16 init=  2.028     fin=  2.028     change= 0.1271E-04
 Checking convergence criteria
 Diagonalising expanded subspace
 Copying updated data back
eigenvalue   17 init=  2.485     fin=  2.485     change= 0.2550E-06
 Checking convergence criteria
 no. bands in each block=           8
Kinetic eigenvalue #   1 =     0.38348971E+02
Kinetic eigenvalue #   2 =     0.39990483E+02
Kinetic eigenvalue #   3 =     0.39990481E+02
Kinetic eigenvalue #   4 =     0.39595183E+02
Kinetic eigenvalue #   5 =     0.25112526E+02
Kinetic eigenvalue #   6 =     0.42186747E+02
Kinetic eigenvalue #   7 =     0.37391950E+02
Kinetic eigenvalue #   8 =     0.37412406E+02
Kinetic eigenvalue #   9 =     0.37900587E+02
Kinetic eigenvalue #  10 =     0.37455932E+02
Kinetic eigenvalue #  11 =     0.23372275E+02
Kinetic eigenvalue #  12 =     0.38336693E+02
Kinetic eigenvalue #  13 =     0.38452615E+02
Kinetic eigenvalue #  14 =     0.24719402E+02
Kinetic eigenvalue #  15 =     0.13655755E+02
Kinetic eigenvalue #  16 =     0.14273376E+02
Kinetic eigenvalue #  17 =     0.77276904E+01
 Calculating the R matrix for the precon Sinv operator
 Diagonalising expanded subspace
 Copying updated data back
eigenvalue    1 init= -83.96     fin= -83.96     change= 0.2158E-08
eigenvalue    2 init= -53.14     fin= -53.14     change= 0.7803E-10
eigenvalue    3 init= -53.14     fin= -53.14     change= 0.6859E-10
eigenvalue    4 init= -52.98     fin= -52.98     change= 0.5363E-08
eigenvalue    5 init= -20.18     fin= -20.18     change= 0.1080E-04
eigenvalue    6 init= -7.507     fin= -7.507     change= 0.7435E-04
eigenvalue    7 init= -7.037     fin= -7.037     change= 0.1449E-04
eigenvalue    8 init= -7.036     fin= -7.036     change= 0.1431E-04
 Checking convergence criteria
 Diagonalising expanded subspace
 Copying updated data back
eigenvalue    1 init= -83.96     fin= -83.96     change= 0.2171E-08
eigenvalue    2 init= -53.14     fin= -53.14     change= 0.7892E-10
eigenvalue    3 init= -53.14     fin= -53.14     change= 0.6904E-10
eigenvalue    4 init= -52.98     fin= -52.98     change= 0.5683E-08
eigenvalue    5 init= -20.18     fin= -20.18     change= 0.1138E-04
eigenvalue    6 init= -7.507     fin= -7.507     change= 0.7938E-04
eigenvalue    7 init= -7.037     fin= -7.037     change= 0.1565E-04
eigenvalue    8 init= -7.036     fin= -7.036     change= 0.1545E-04
 Checking convergence criteria
 Diagonalising expanded subspace
 Copying updated data back
eigenvalue    9 init= -5.531     fin= -5.531     change= 0.3795E-06
eigenvalue   10 init= -5.361     fin= -5.361     change= 0.1792E-05
eigenvalue   11 init= -4.158     fin= -4.158     change= 0.5024E-04
eigenvalue   12 init= -3.529     fin= -3.529     change= 0.1299E-04
eigenvalue   13 init= -3.502     fin= -3.502     change= 0.2190E-04
eigenvalue   14 init= -1.725     fin= -1.726     change= 0.5130E-04
eigenvalue   15 init= 0.3069     fin= 0.3069     change= 0.1720E-05
eigenvalue   16 init= 0.4376     fin= 0.4376     change= 0.9799E-06
 Checking convergence criteria
 Diagonalising expanded subspace
 Copying updated data back
eigenvalue    9 init= -5.531     fin= -5.531     change= 0.3805E-06
eigenvalue   10 init= -5.361     fin= -5.361     change= 0.1987E-05
eigenvalue   11 init= -4.158     fin= -4.158     change= 0.5513E-04
eigenvalue   12 init= -3.529     fin= -3.529     change= 0.1454E-04
eigenvalue   13 init= -3.502     fin= -3.502     change= 0.2428E-04
eigenvalue   14 init= -1.725     fin= -1.726     change= 0.5800E-04
eigenvalue   15 init= 0.3069     fin= 0.3069     change= 0.2352E-05
eigenvalue   16 init= 0.4376     fin= 0.4376     change= 0.1192E-05
 Checking convergence criteria
 Diagonalising expanded subspace
 Copying updated data back
eigenvalue   17 init=  2.643     fin=  2.643     change= 0.3517E-05
 Checking convergence criteria
 Diagonalising expanded subspace
 Copying updated data back
eigenvalue   17 init=  2.643     fin=  2.643     change= 0.5828E-05
 Checking convergence criteria
 Diagonalising expanded subspace
 Copying updated data back
eigenvalue   17 init=  2.643     fin=  2.643     change= 0.7862E-05
 Checking convergence criteria
 Diagonalising expanded subspace
 Copying updated data back
eigenvalue   17 init=  2.643     fin=  2.643     change= 0.9365E-05
 Checking convergence criteria
 Diagonalising expanded subspace
 Copying updated data back
eigenvalue   17 init=  2.643     fin=  2.643     change= 0.1029E-04
 Checking convergence criteria
 no. bands in each block=           8
Kinetic eigenvalue #   1 =     0.38348960E+02
Kinetic eigenvalue #   2 =     0.39990472E+02
Kinetic eigenvalue #   3 =     0.39990660E+02
Kinetic eigenvalue #   4 =     0.39595175E+02
Kinetic eigenvalue #   5 =     0.25099043E+02
Kinetic eigenvalue #   6 =     0.42122289E+02
Kinetic eigenvalue #   7 =     0.37333012E+02
Kinetic eigenvalue #   8 =     0.37797753E+02
Kinetic eigenvalue #   9 =     0.37459155E+02
Kinetic eigenvalue #  10 =     0.37726085E+02
Kinetic eigenvalue #  11 =     0.20289011E+02
Kinetic eigenvalue #  12 =     0.37545438E+02
Kinetic eigenvalue #  13 =     0.41168603E+02
Kinetic eigenvalue #  14 =     0.25571076E+02
Kinetic eigenvalue #  15 =     0.13556085E+02
Kinetic eigenvalue #  16 =     0.80522571E+01
Kinetic eigenvalue #  17 =     0.17118951E+02
 Calculating the R matrix for the precon Sinv operator
 Diagonalising expanded subspace
 Copying updated data back
eigenvalue    1 init= -83.96     fin= -83.96     change= 0.2209E-08
eigenvalue    2 init= -53.14     fin= -53.14     change= 0.7292E-10
eigenvalue    3 init= -53.14     fin= -53.14     change= 0.6027E-10
eigenvalue    4 init= -52.98     fin= -52.98     change= 0.4827E-08
eigenvalue    5 init= -20.18     fin= -20.18     change= 0.9662E-05
eigenvalue    6 init= -7.510     fin= -7.510     change= 0.6665E-04
eigenvalue    7 init= -7.041     fin= -7.041     change= 0.1549E-04
eigenvalue    8 init= -7.004     fin= -7.004     change= 0.8323E-05
 Checking convergence criteria
 Diagonalising expanded subspace
 Copying updated data back
eigenvalue    1 init= -83.96     fin= -83.96     change= 0.2225E-08
eigenvalue    2 init= -53.14     fin= -53.14     change= 0.7356E-10
eigenvalue    3 init= -53.14     fin= -53.14     change= 0.6049E-10
eigenvalue    4 init= -52.98     fin= -52.98     change= 0.5121E-08
eigenvalue    5 init= -20.18     fin= -20.18     change= 0.1017E-04
eigenvalue    6 init= -7.510     fin= -7.510     change= 0.7104E-04
eigenvalue    7 init= -7.041     fin= -7.041     change= 0.1670E-04
eigenvalue    8 init= -7.004     fin= -7.004     change= 0.8837E-05
 Checking convergence criteria
 Diagonalising expanded subspace
 Copying updated data back
eigenvalue    9 init= -5.563     fin= -5.563     change= 0.6933E-06
eigenvalue   10 init= -5.343     fin= -5.343     change= 0.1196E-05
eigenvalue   11 init= -4.421     fin= -4.421     change= 0.3982E-04
eigenvalue   12 init= -3.550     fin= -3.550     change= 0.1843E-04
eigenvalue   13 init= -3.399     fin= -3.399     change= 0.7102E-05
eigenvalue   14 init= -1.908     fin= -1.908     change= 0.5015E-04
eigenvalue   15 init= -.5740E-01 fin= -.5740E-01 change= 0.1999E-05
eigenvalue   16 init=  2.028     fin=  2.028     change= 0.7331E-05
 Checking convergence criteria
 Diagonalising expanded subspace
 Copying updated data back
eigenvalue    9 init= -5.563     fin= -5.563     change= 0.7140E-06
eigenvalue   10 init= -5.343     fin= -5.343     change= 0.1301E-05
eigenvalue   11 init= -4.421     fin= -4.421     change= 0.4408E-04
eigenvalue   12 init= -3.550     fin= -3.550     change= 0.2062E-04
eigenvalue   13 init= -3.399     fin= -3.399     change= 0.7654E-05
eigenvalue   14 init= -1.908     fin= -1.908     change= 0.5715E-04
eigenvalue   15 init= -.5740E-01 fin= -.5740E-01 change= 0.2487E-05
eigenvalue   16 init=  2.028     fin=  2.028     change= 0.1011E-04
 Checking convergence criteria
 Diagonalising expanded subspace
 Copying updated data back
eigenvalue    9 init= -5.563     fin= -5.563     change= 0.7177E-06
eigenvalue   10 init= -5.343     fin= -5.343     change= 0.1301E-05
eigenvalue   11 init= -4.421     fin= -4.421     change= 0.4480E-04
eigenvalue   12 init= -3.550     fin= -3.550     change= 0.2087E-04
eigenvalue   13 init= -3.399     fin= -3.399     change= 0.7666E-05
eigenvalue   14 init= -1.908     fin= -1.908     change= 0.5894E-04
eigenvalue   15 init= -.5740E-01 fin= -.5740E-01 change= 0.2597E-05
eigenvalue   16 init=  2.028     fin=  2.028     change= 0.1208E-04
 Checking convergence criteria
 Diagonalising expanded subspace
 Copying updated data back
eigenvalue   17 init=  2.485     fin=  2.485     change= 0.2399E-06
 Checking convergence criteria
 no. bands in each block=           8
Kinetic eigenvalue #   1 =     0.37872827E+02
Kinetic eigenvalue #   2 =     0.39259389E+02
Kinetic eigenvalue #   3 =     0.39828255E+02
Kinetic eigenvalue #   4 =     0.39828260E+02
Kinetic eigenvalue #   5 =     0.25186723E+02
Kinetic eigenvalue #   6 =     0.43805622E+02
Kinetic eigenvalue #   7 =     0.37875739E+02
Kinetic eigenvalue #   8 =     0.37953623E+02
Kinetic eigenvalue #   9 =     0.36819316E+02
Kinetic eigenvalue #  10 =     0.32265673E+02
Kinetic eigenvalue #  11 =     0.22439585E+02
Kinetic eigenvalue #  12 =     0.36089903E+02
Kinetic eigenvalue #  13 =     0.36345366E+02
Kinetic eigenvalue #  14 =     0.23975481E+02
Kinetic eigenvalue #  15 =     0.13730900E+02
Kinetic eigenvalue #  16 =     0.14861435E+02
Kinetic eigenvalue #  17 =     0.80852684E+01
 Calculating the R matrix for the precon Sinv operator
 Diagonalising expanded subspace
 Copying updated data back
eigenvalue    1 init= -80.00     fin= -80.00     change= 0.3053E-08
eigenvalue    2 init= -49.54     fin= -49.54     change= 0.1553E-07
eigenvalue    3 init= -49.09     fin= -49.09     change= 0.1815E-09
eigenvalue    4 init= -49.09     fin= -49.09     change= 0.1294E-09
eigenvalue    5 init= -19.72     fin= -19.72     change= 0.1875E-04
eigenvalue    6 init= -6.552     fin= -6.552     change= 0.8061E-04
eigenvalue    7 init= -5.757     fin= -5.757     change= 0.1407E-04
eigenvalue    8 init= -5.754     fin= -5.754     change= 0.8154E-05
 Checking convergence criteria
 Diagonalising expanded subspace
 Copying updated data back
eigenvalue    1 init= -80.00     fin= -80.00     change= 0.3189E-08
eigenvalue    2 init= -49.54     fin= -49.54     change= 0.1638E-07
eigenvalue    3 init= -49.09     fin= -49.09     change= 0.1830E-09
eigenvalue    4 init= -49.09     fin= -49.09     change= 0.1299E-09
eigenvalue    5 init= -19.72     fin= -19.72     change= 0.1968E-04
eigenvalue    6 init= -6.552     fin= -6.552     change= 0.8542E-04
eigenvalue    7 init= -5.757     fin= -5.757     change= 0.1531E-04
eigenvalue    8 init= -5.754     fin= -5.754     change= 0.8694E-05
 Checking convergence criteria
 Diagonalising expanded subspace
 Copying updated data back
eigenvalue    9 init= -1.881     fin= -1.881     change= 0.1108E-03
eigenvalue   10 init= -1.837     fin= -1.837     change= 0.1540E-04
eigenvalue   11 init= -1.699     fin= -1.699     change= 0.1033E-03
eigenvalue   12 init= -.9359     fin= -.9359     change= 0.2579E-04
eigenvalue   13 init= -.9096     fin= -.9097     change= 0.9450E-04
eigenvalue   14 init= -.1197     fin= -.1199     change= 0.1815E-03
eigenvalue   15 init=  1.629     fin=  1.629     change= 0.5407E-05
eigenvalue   16 init=  1.862     fin=  1.862     change= 0.2958E-05
 Checking convergence criteria
 Diagonalising expanded subspace
 Copying updated data back
eigenvalue    9 init= -1.881     fin= -1.881     change= 0.1219E-03
eigenvalue   10 init= -1.837     fin= -1.837     change= 0.1623E-04
eigenvalue   11 init= -1.699     fin= -1.699     change= 0.1137E-03
eigenvalue   12 init= -.9359     fin= -.9359     change= 0.2943E-04
eigenvalue   13 init= -.9096     fin= -.9097     change= 0.1060E-03
eigenvalue   14 init= -.1197     fin= -.1199     change= 0.2049E-03
eigenvalue   15 init=  1.629     fin=  1.629     change= 0.7236E-05
eigenvalue   16 init=  1.862     fin=  1.862     change= 0.4066E-05
 Checking convergence criteria
 Diagonalising expanded subspace
 Copying updated data back
eigenvalue    9 init= -1.881     fin= -1.881     change= 0.1223E-03
eigenvalue   10 init= -1.837     fin= -1.837     change= 0.1628E-04
eigenvalue   11 init= -1.699     fin= -1.699     change= 0.1142E-03
eigenvalue   12 init= -.9359     fin= -.9359     change= 0.2992E-04
eigenvalue   13 init= -.9096     fin= -.9097     change= 0.1070E-03
eigenvalue   14 init= -.1197     fin= -.1199     change= 0.2061E-03
eigenvalue   15 init=  1.629     fin=  1.629     change= 0.7641E-05
eigenvalue   16 init=  1.862     fin=  1.862     change= 0.4433E-05
 Checking convergence criteria
 Diagonalising expanded subspace
 Copying updated data back
eigenvalue   17 init=  3.139     fin=  3.139     change= 0.2068E-04
 Checking convergence criteria
 Diagonalising expanded subspace
 Copying updated data back
eigenvalue   17 init=  3.139     fin=  3.139     change= 0.3046E-04
 Checking convergence criteria
 Diagonalising expanded subspace
 Copying updated data back
eigenvalue   17 init=  3.139     fin=  3.139     change= 0.3602E-04
 Checking convergence criteria
 no. bands in each block=           8
Kinetic eigenvalue #   1 =     0.37872752E+02
Kinetic eigenvalue #   2 =     0.39259377E+02
Kinetic eigenvalue #   3 =     0.39828243E+02
Kinetic eigenvalue #   4 =     0.39828505E+02
Kinetic eigenvalue #   5 =     0.25173050E+02
Kinetic eigenvalue #   6 =     0.43723010E+02
Kinetic eigenvalue #   7 =     0.37749840E+02
Kinetic eigenvalue #   8 =     0.38728885E+02
Kinetic eigenvalue #   9 =     0.19304159E+02
Kinetic eigenvalue #  10 =     0.31832881E+02
Kinetic eigenvalue #  11 =     0.36757792E+02
Kinetic eigenvalue #  12 =     0.34455454E+02
Kinetic eigenvalue #  13 =     0.39782238E+02
Kinetic eigenvalue #  14 =     0.24529100E+02
Kinetic eigenvalue #  15 =     0.14893019E+02
Kinetic eigenvalue #  16 =     0.89241411E+01
Kinetic eigenvalue #  17 =     0.16019077E+02
 Calculating the R matrix for the precon Sinv operator
 Diagonalising expanded subspace
 Copying updated data back
eigenvalue    1 init= -80.00     fin= -80.00     change= 0.2728E-08
eigenvalue    2 init= -49.54     fin= -49.54     change= 0.1557E-07
eigenvalue    3 init= -49.09     fin= -49.09     change= 0.1626E-09
eigenvalue    4 init= -49.09     fin= -49.09     change= 0.1159E-09
eigenvalue    5 init= -19.72     fin= -19.72     change= 0.1874E-04
eigenvalue    6 init= -6.557     fin= -6.557     change= 0.8115E-04
eigenvalue    7 init= -5.765     fin= -5.765     change= 0.1043E-04
eigenvalue    8 init= -5.698     fin= -5.698     change= 0.6393E-05
 Checking convergence criteria
 Diagonalising expanded subspace
 Copying updated data back
eigenvalue    1 init= -80.00     fin= -80.00     change= 0.2844E-08
eigenvalue    2 init= -49.54     fin= -49.54     change= 0.1644E-07
eigenvalue    3 init= -49.09     fin= -49.09     change= 0.1633E-09
eigenvalue    4 init= -49.09     fin= -49.09     change= 0.1162E-09
eigenvalue    5 init= -19.72     fin= -19.72     change= 0.1980E-04
eigenvalue    6 init= -6.557     fin= -6.557     change= 0.8770E-04
eigenvalue    7 init= -5.765     fin= -5.765     change= 0.1108E-04
eigenvalue    8 init= -5.698     fin= -5.698     change= 0.6690E-05
 Checking convergence criteria
 Diagonalising expanded subspace
 Copying updated data back
eigenvalue    9 init= -2.323     fin= -2.323     change= 0.1098E-03
eigenvalue   10 init= -1.858     fin= -1.858     change= 0.4349E-04
eigenvalue   11 init= -1.653     fin= -1.653     change= 0.4188E-04
eigenvalue   12 init= -.9846     fin= -.9846     change= 0.6118E-04
eigenvalue   13 init= -.7797     fin= -.7798     change= 0.2033E-04
eigenvalue   14 init= -.3033     fin= -.3035     change= 0.2177E-03
eigenvalue   15 init=  1.245     fin=  1.245     change= 0.6240E-05
eigenvalue   16 init=  2.548     fin=  2.548     change= 0.5073E-04
 Checking convergence criteria
 Diagonalising expanded subspace
 Copying updated data back
eigenvalue    9 init= -2.323     fin= -2.323     change= 0.1218E-03
eigenvalue   10 init= -1.858     fin= -1.858     change= 0.4680E-04
eigenvalue   11 init= -1.653     fin= -1.653     change= 0.4424E-04
eigenvalue   12 init= -.9846     fin= -.9847     change= 0.6961E-04
eigenvalue   13 init= -.7797     fin= -.7798     change= 0.2193E-04
eigenvalue   14 init= -.3033     fin= -.3036     change= 0.2517E-03
eigenvalue   15 init=  1.245     fin=  1.245     change= 0.7834E-05
eigenvalue   16 init=  2.548     fin=  2.548     change= 0.7123E-04
 Checking convergence criteria
 Diagonalising expanded subspace
 Copying updated data back
eigenvalue    9 init= -2.323     fin= -2.323     change= 0.1222E-03
eigenvalue   10 init= -1.858     fin= -1.858     change= 0.4680E-04
eigenvalue   11 init= -1.653     fin= -1.653     change= 0.4424E-04
eigenvalue   12 init= -.9846     fin= -.9847     change= 0.7016E-04
eigenvalue   13 init= -.7797     fin= -.7798     change= 0.2200E-04
eigenvalue   14 init= -.3033     fin= -.3036     change= 0.2538E-03
eigenvalue   15 init=  1.245     fin=  1.245     change= 0.7971E-05
eigenvalue   16 init=  2.548     fin=  2.548     change= 0.7532E-04
 Checking convergence criteria
 Diagonalising expanded subspace
 Copying updated data back
eigenvalue   17 init=  4.245     fin=  4.245     change= 0.7131E-06
 Checking convergence criteria
 no. bands in each block=           8
Kinetic eigenvalue #   1 =     0.37872751E+02
Kinetic eigenvalue #   2 =     0.39259377E+02
Kinetic eigenvalue #   3 =     0.39828243E+02
Kinetic eigenvalue #   4 =     0.39828505E+02
Kinetic eigenvalue #   5 =     0.25173050E+02
Kinetic eigenvalue #   6 =     0.43723008E+02
Kinetic eigenvalue #   7 =     0.37749840E+02
Kinetic eigenvalue #   8 =     0.38728884E+02
Kinetic eigenvalue #   9 =     0.19304442E+02
Kinetic eigenvalue #  10 =     0.31832881E+02
Kinetic eigenvalue #  11 =     0.36757791E+02
Kinetic eigenvalue #  12 =     0.34455446E+02
Kinetic eigenvalue #  13 =     0.39782223E+02
Kinetic eigenvalue #  14 =     0.24529668E+02
Kinetic eigenvalue #  15 =     0.14893033E+02
Kinetic eigenvalue #  16 =     0.89240129E+01
Kinetic eigenvalue #  17 =     0.16026346E+02
 Calculating the R matrix for the precon Sinv operator
 Diagonalising expanded subspace
 Copying updated data back
eigenvalue    1 init= -80.00     fin= -80.00     change= 0.2728E-08
eigenvalue    2 init= -49.54     fin= -49.54     change= 0.1557E-07
eigenvalue    3 init= -49.09     fin= -49.09     change= 0.1626E-09
eigenvalue    4 init= -49.09     fin= -49.09     change= 0.1154E-09
eigenvalue    5 init= -19.72     fin= -19.72     change= 0.1875E-04
eigenvalue    6 init= -6.557     fin= -6.557     change= 0.8117E-04
eigenvalue    7 init= -5.765     fin= -5.765     change= 0.1044E-04
eigenvalue    8 init= -5.698     fin= -5.698     change= 0.6351E-05
 Checking convergence criteria
 Diagonalising expanded subspace
 Copying updated data back
eigenvalue    1 init= -80.00     fin= -80.00     change= 0.2843E-08
eigenvalue    2 init= -49.54     fin= -49.54     change= 0.1644E-07
eigenvalue    3 init= -49.09     fin= -49.09     change= 0.1633E-09
eigenvalue    4 init= -49.09     fin= -49.09     change= 0.1158E-09
eigenvalue    5 init= -19.72     fin= -19.72     change= 0.1981E-04
eigenvalue    6 init= -6.557     fin= -6.557     change= 0.8775E-04
eigenvalue    7 init= -5.765     fin= -5.765     change= 0.1108E-04
eigenvalue    8 init= -5.698     fin= -5.698     change= 0.6642E-05
 Checking convergence criteria
 Diagonalising expanded subspace
 Copying updated data back
eigenvalue    9 init= -2.323     fin= -2.323     change= 0.1093E-03
eigenvalue   10 init= -1.858     fin= -1.858     change= 0.4359E-04
eigenvalue   11 init= -1.653     fin= -1.653     change= 0.4187E-04
eigenvalue   12 init= -.9846     fin= -.9846     change= 0.6099E-04
eigenvalue   13 init= -.7797     fin= -.7798     change= 0.2014E-04
eigenvalue   14 init= -.3033     fin= -.3035     change= 0.2191E-03
eigenvalue   15 init=  1.245     fin=  1.245     change= 0.6125E-05
eigenvalue   16 init=  2.548     fin=  2.548     change= 0.5056E-04
 Checking convergence criteria
 Diagonalising expanded subspace
 Copying updated data back
eigenvalue    9 init= -2.323     fin= -2.323     change= 0.1212E-03
eigenvalue   10 init= -1.858     fin= -1.858     change= 0.4682E-04
eigenvalue   11 init= -1.653     fin= -1.653     change= 0.4423E-04
eigenvalue   12 init= -.9846     fin= -.9847     change= 0.6931E-04
eigenvalue   13 init= -.7797     fin= -.7798     change= 0.2173E-04
eigenvalue   14 init= -.3033     fin= -.3036     change= 0.2529E-03
eigenvalue   15 init=  1.245     fin=  1.245     change= 0.7658E-05
eigenvalue   16 init=  2.548     fin=  2.548     change= 0.6994E-04
 Checking convergence criteria
 Diagonalising expanded subspace
 Copying updated data back
eigenvalue    9 init= -2.323     fin= -2.323     change= 0.1216E-03
eigenvalue   10 init= -1.858     fin= -1.858     change= 0.4682E-04
eigenvalue   11 init= -1.653     fin= -1.653     change= 0.4423E-04
eigenvalue   12 init= -.9846     fin= -.9847     change= 0.7011E-04
eigenvalue   13 init= -.7797     fin= -.7798     change= 0.2176E-04
eigenvalue   14 init= -.3033     fin= -.3036     change= 0.2552E-03
eigenvalue   15 init=  1.245     fin=  1.245     change= 0.7848E-05
eigenvalue   16 init=  2.548     fin=  2.548     change= 0.7451E-04
 Checking convergence criteria
 Diagonalising expanded subspace
 Copying updated data back
eigenvalue   17 init=  4.245     fin=  4.245     change= 0.6484E-06
 Checking convergence criteria
 no. bands in each block=           8
Kinetic eigenvalue #   1 =     0.37872810E+02
Kinetic eigenvalue #   2 =     0.39259389E+02
Kinetic eigenvalue #   3 =     0.39828255E+02
Kinetic eigenvalue #   4 =     0.39828260E+02
Kinetic eigenvalue #   5 =     0.25186721E+02
Kinetic eigenvalue #   6 =     0.43805574E+02
Kinetic eigenvalue #   7 =     0.37875726E+02
Kinetic eigenvalue #   8 =     0.37953623E+02
Kinetic eigenvalue #   9 =     0.36819317E+02
Kinetic eigenvalue #  10 =     0.32265597E+02
Kinetic eigenvalue #  11 =     0.22439552E+02
Kinetic eigenvalue #  12 =     0.36089907E+02
Kinetic eigenvalue #  13 =     0.36345377E+02
Kinetic eigenvalue #  14 =     0.23975518E+02
Kinetic eigenvalue #  15 =     0.13729851E+02
Kinetic eigenvalue #  16 =     0.14861414E+02
Kinetic eigenvalue #  17 =     0.80823873E+01
 Calculating the R matrix for the precon Sinv operator
 Diagonalising expanded subspace
 Copying updated data back
eigenvalue    1 init= -80.00     fin= -80.00     change= 0.3100E-08
eigenvalue    2 init= -49.54     fin= -49.54     change= 0.1552E-07
eigenvalue    3 init= -49.09     fin= -49.09     change= 0.1814E-09
eigenvalue    4 init= -49.09     fin= -49.09     change= 0.1292E-09
eigenvalue    5 init= -19.72     fin= -19.72     change= 0.1868E-04
eigenvalue    6 init= -6.552     fin= -6.552     change= 0.8015E-04
eigenvalue    7 init= -5.757     fin= -5.757     change= 0.1412E-04
eigenvalue    8 init= -5.754     fin= -5.754     change= 0.8154E-05
 Checking convergence criteria
 Diagonalising expanded subspace
 Copying updated data back
eigenvalue    1 init= -80.00     fin= -80.00     change= 0.3247E-08
eigenvalue    2 init= -49.54     fin= -49.54     change= 0.1640E-07
eigenvalue    3 init= -49.09     fin= -49.09     change= 0.1830E-09
eigenvalue    4 init= -49.09     fin= -49.09     change= 0.1297E-09
eigenvalue    5 init= -19.72     fin= -19.72     change= 0.1967E-04
eigenvalue    6 init= -6.552     fin= -6.552     change= 0.8525E-04
eigenvalue    7 init= -5.757     fin= -5.757     change= 0.1539E-04
eigenvalue    8 init= -5.754     fin= -5.754     change= 0.8693E-05
 Checking convergence criteria
 Diagonalising expanded subspace
 Copying updated data back
eigenvalue    9 init= -1.881     fin= -1.881     change= 0.1110E-03
eigenvalue   10 init= -1.837     fin= -1.837     change= 0.1540E-04
eigenvalue   11 init= -1.699     fin= -1.699     change= 0.1036E-03
eigenvalue   12 init= -.9359     fin= -.9359     change= 0.2579E-04
eigenvalue   13 init= -.9096     fin= -.9097     change= 0.9457E-04
eigenvalue   14 init= -.1197     fin= -.1199     change= 0.1826E-03
eigenvalue   15 init=  1.629     fin=  1.629     change= 0.5053E-05
eigenvalue   16 init=  1.862     fin=  1.862     change= 0.2949E-05
 Checking convergence criteria
 Diagonalising expanded subspace
 Copying updated data back
eigenvalue    9 init= -1.881     fin= -1.881     change= 0.1218E-03
eigenvalue   10 init= -1.837     fin= -1.837     change= 0.1623E-04
eigenvalue   11 init= -1.699     fin= -1.699     change= 0.1135E-03
eigenvalue   12 init= -.9359     fin= -.9359     change= 0.2943E-04
eigenvalue   13 init= -.9096     fin= -.9097     change= 0.1061E-03
eigenvalue   14 init= -.1197     fin= -.1199     change= 0.2049E-03
eigenvalue   15 init=  1.629     fin=  1.629     change= 0.6541E-05
eigenvalue   16 init=  1.862     fin=  1.862     change= 0.4055E-05
 Checking convergence criteria
 Diagonalising expanded subspace
 Copying updated data back
eigenvalue    9 init= -1.881     fin= -1.881     change= 0.1218E-03
eigenvalue   10 init= -1.837     fin= -1.837     change= 0.1628E-04
eigenvalue   11 init= -1.699     fin= -1.699     change= 0.1135E-03
eigenvalue   12 init= -.9359     fin= -.9359     change= 0.2993E-04
eigenvalue   13 init= -.9096     fin= -.9097     change= 0.1061E-03
eigenvalue   14 init= -.1197     fin= -.1199     change= 0.2049E-03
eigenvalue   15 init=  1.629     fin=  1.629     change= 0.6541E-05
eigenvalue   16 init=  1.862     fin=  1.862     change= 0.4420E-05
 Checking convergence criteria
 Diagonalising expanded subspace
 Copying updated data back
eigenvalue   17 init=  3.139     fin=  3.139     change= 0.1742E-04
 Checking convergence criteria
 Diagonalising expanded subspace
 Copying updated data back
eigenvalue   17 init=  3.139     fin=  3.139     change= 0.2863E-04
 Checking convergence criteria
 Diagonalising expanded subspace
 Copying updated data back
eigenvalue   17 init=  3.139     fin=  3.139     change= 0.3371E-04
 Checking convergence criteria
 no. bands in each block=           8
Kinetic eigenvalue #   1 =     0.37872752E+02
Kinetic eigenvalue #   2 =     0.39259377E+02
Kinetic eigenvalue #   3 =     0.39828243E+02
Kinetic eigenvalue #   4 =     0.39828505E+02
Kinetic eigenvalue #   5 =     0.25173050E+02
Kinetic eigenvalue #   6 =     0.43723007E+02
Kinetic eigenvalue #   7 =     0.37749840E+02
Kinetic eigenvalue #   8 =     0.38728886E+02
Kinetic eigenvalue #   9 =     0.19304417E+02
Kinetic eigenvalue #  10 =     0.31832909E+02
Kinetic eigenvalue #  11 =     0.36757792E+02
Kinetic eigenvalue #  12 =     0.34455431E+02
Kinetic eigenvalue #  13 =     0.39782232E+02
Kinetic eigenvalue #  14 =     0.24529650E+02
Kinetic eigenvalue #  15 =     0.14893062E+02
Kinetic eigenvalue #  16 =     0.89240042E+01
Kinetic eigenvalue #  17 =     0.16012492E+02
 Calculating the R matrix for the precon Sinv operator
 Diagonalising expanded subspace
 Copying updated data back
eigenvalue    1 init= -80.00     fin= -80.00     change= 0.2728E-08
eigenvalue    2 init= -49.54     fin= -49.54     change= 0.1556E-07
eigenvalue    3 init= -49.09     fin= -49.09     change= 0.1625E-09
eigenvalue    4 init= -49.09     fin= -49.09     change= 0.1163E-09
eigenvalue    5 init= -19.72     fin= -19.72     change= 0.1874E-04
eigenvalue    6 init= -6.557     fin= -6.557     change= 0.8113E-04
eigenvalue    7 init= -5.765     fin= -5.765     change= 0.1043E-04
eigenvalue    8 init= -5.698     fin= -5.698     change= 0.6424E-05
 Checking convergence criteria
 Diagonalising expanded subspace
 Copying updated data back
eigenvalue    1 init= -80.00     fin= -80.00     change= 0.2842E-08
eigenvalue    2 init= -49.54     fin= -49.54     change= 0.1644E-07
eigenvalue    3 init= -49.09     fin= -49.09     change= 0.1632E-09
eigenvalue    4 init= -49.09     fin= -49.09     change= 0.1167E-09
eigenvalue    5 init= -19.72     fin= -19.72     change= 0.1980E-04
eigenvalue    6 init= -6.557     fin= -6.557     change= 0.8769E-04
eigenvalue    7 init= -5.765     fin= -5.765     change= 0.1108E-04
eigenvalue    8 init= -5.698     fin= -5.698     change= 0.6725E-05
 Checking convergence criteria
 Diagonalising expanded subspace
 Copying updated data back
eigenvalue    9 init= -2.323     fin= -2.323     change= 0.1091E-03
eigenvalue   10 init= -1.858     fin= -1.858     change= 0.4357E-04
eigenvalue   11 init= -1.653     fin= -1.653     change= 0.4189E-04
eigenvalue   12 init= -.9846     fin= -.9846     change= 0.6081E-04
eigenvalue   13 init= -.7797     fin= -.7798     change= 0.2043E-04
eigenvalue   14 init= -.3033     fin= -.3035     change= 0.2184E-03
eigenvalue   15 init=  1.245     fin=  1.245     change= 0.6123E-05
eigenvalue   16 init=  2.548     fin=  2.548     change= 0.5017E-04
 Checking convergence criteria
 Diagonalising expanded subspace
 Copying updated data back
eigenvalue    9 init= -2.323     fin= -2.323     change= 0.1211E-03
eigenvalue   10 init= -1.858     fin= -1.858     change= 0.4681E-04
eigenvalue   11 init= -1.653     fin= -1.653     change= 0.4425E-04
eigenvalue   12 init= -.9846     fin= -.9847     change= 0.6928E-04
eigenvalue   13 init= -.7797     fin= -.7798     change= 0.2212E-04
eigenvalue   14 init= -.3033     fin= -.3036     change= 0.2526E-03
eigenvalue   15 init=  1.245     fin=  1.245     change= 0.7699E-05
eigenvalue   16 init=  2.548     fin=  2.548     change= 0.6978E-04
 Checking convergence criteria
 Diagonalising expanded subspace
 Copying updated data back
eigenvalue    9 init= -2.323     fin= -2.323     change= 0.1215E-03
eigenvalue   10 init= -1.858     fin= -1.858     change= 0.4681E-04
eigenvalue   11 init= -1.653     fin= -1.653     change= 0.4425E-04
eigenvalue   12 init= -.9846     fin= -.9847     change= 0.7006E-04
eigenvalue   13 init= -.7797     fin= -.7798     change= 0.2216E-04
eigenvalue   14 init= -.3033     fin= -.3036     change= 0.2550E-03
eigenvalue   15 init=  1.245     fin=  1.245     change= 0.7886E-05
eigenvalue   16 init=  2.548     fin=  2.548     change= 0.7446E-04
 Checking convergence criteria
 Diagonalising expanded subspace
 Copying updated data back
eigenvalue   17 init=  4.245     fin=  4.245     change= 0.7516E-06
 Checking convergence criteria
(Entering electronic_find_fermi_fix)
Smearing occupancies with Gaussians
Spin: 1, Min eigenvalue: -8.4755E+001 eV, Max eigenvalue:  3.4430E+000 eV
Fermi energy for up electrons = -2.9966E+000 eV [lower bound; range =  1.96E-014 eV]
Spin: 2, Min eigenvalue: -8.0796E+001 eV, Max eigenvalue:  5.0448E+000 eV
Fermi energy for down electrons = -3.0582E+000 eV [lower bound; range =  1.91E-014 eV]
(Leaving electronic_find_fermi_fix)
NB material has an apparent band gap of  1.3187E+000eV for spin up electrons.
NB material has an apparent band gap of  3.3749E+000eV for spin down electrons.
Calculating KE and non-local eigenvalues to find total energy
 
End of SCF cycle energies
Exchange-correlation energy      =      -499.07913191541501874 eV
+Hartree energy                  =      2055.86480228865912068 eV
+Local pseudopotential energy    =     -5072.04198973965321784 eV
----------------------------------
Potential energy (total)         =     -3512.44332211026312507 eV
                                  
+Hubbard U energy                =         1.91999999999999993 eV
+Kinetic energy                  =       776.51366872712731038 eV
+Non-local energy                =       149.50913186475506222 eV
+Electronic entropy term (-TS)   =        -0.00123511923928419 eV
+Ewald energy (const)            =      -774.85607651874397561 eV
+non-Coulombic energy (const)    =        13.80612138473854067 eV
----------------------------------
Total free energy (E-TS)         =     -3345.55171177162492313 eV
 
NB est. 0K energy (E-0.5TS)      =     -3345.55109421200495490 eV
 
(XC correction to eigenvalue sum =        44.01690523340165129 eV)
(Hubbard U correction to eigenvalu         0.00000003000000000 eV)
 
      1  -3.34555171E+003 -3.02008322E+000   5.30457504E-002      15.87  <-- SCF
 Calculate new overlap and Hubbard U matrix
 Density matrix in cubic harmonics:
     1.0000     0.0000     0.0000     0.0000     0.0000
     0.0000     0.0000     0.0000     0.0000     0.0000
     0.0000     0.0000     0.0000     0.0000     0.0000
     0.0000     0.0000     0.0000     0.0000     0.0000
     0.0000     0.0000     0.0000     0.0000     0.0000
     0.0000     0.0000     0.0000     0.0000     0.0000
     0.0000     0.0000     0.0000     1.0000     0.0000
     0.0000     0.0000     0.0000     0.0000     0.0000
     0.0000     0.0000     0.0000     0.0000     1.0000
     0.0000     0.0000     0.0000     0.0000     0.0000
 Hermiticity:        (-4.44089209850062616E-016,0.0000000000000000)
 Density matrix in cubic harmonics:
     1.0000     0.0000     0.0000     0.0000     0.0000
     0.0000     0.0000     0.0000     0.0000     0.0000
     0.0000     0.0000     0.0000     0.0000     0.0000
     0.0000     0.0000     0.0000     0.0000     0.0000
     0.0000     0.0000     0.0000     0.0000     0.0000
     0.0000     0.0000     0.0000     0.0000     0.0000
     0.0000     0.0000     0.0000     1.0000     0.0000
     0.0000     0.0000     0.0000     0.0000     0.0000
     0.0000     0.0000     0.0000     0.0000     1.0000
     0.0000     0.0000     0.0000     0.0000     0.0000
 Hermiticity:        (-4.44089209850062616E-016,0.0000000000000000)
 Density matrix in cubic harmonics:
     0.9390     0.0000    -0.0000     0.1053    -0.0000
     0.0000     0.0000     0.0000     0.0000     0.0000
     0.0000     0.9997    -0.0000    -0.0000    -0.0000
     0.0000     0.0000     0.0000     0.0000     0.0000
    -0.0000    -0.0000     0.9767     0.0000    -0.0000
     0.0000     0.0000     0.0000     0.0000     0.0000
     0.1053    -0.0000     0.0000     0.8174     0.0000
     0.0000     0.0000     0.0000     0.0000     0.0000
    -0.0000    -0.0000    -0.0000     0.0000     0.9767
     0.0000     0.0000     0.0000     0.0000     0.0000
 Hermiticity:              (0.23020876806662105,0.0000000000000000)
 Density matrix in cubic harmonics:
     0.0818     0.0000     0.0000    -0.1416    -0.0000
     0.0000     0.0000     0.0000     0.0000     0.0000
     0.0000     0.0000    -0.0000    -0.0000     0.0000
     0.0000     0.0000     0.0000     0.0000     0.0000
     0.0000    -0.0000     0.2909    -0.0000     0.0000
     0.0000     0.0000     0.0000     0.0000     0.0000
    -0.1416    -0.0000    -0.0000     0.2453     0.0000
     0.0000     0.0000     0.0000     0.0000     0.0000
    -0.0000     0.0000     0.0000     0.0000     0.2909
     0.0000     0.0000     0.0000     0.0000     0.0000
 Hermiticity:              (0.63271970326694005,0.0000000000000000)
  Hubbard energy diff= -0.12211484189325701      eV <-- Hubbard_U
  ----------- Hubbard U: New occupation matrix calculated: --------------------
   1.7978851581067430      eV <= Edirect

     Hubbard U occupation numbers
     ----------------------------
Species   Ion   l  spin               occupancies
==================================================================
  Mn       1    2   up:   0.76  0.98  0.98  1.00  1.00
                    dn:   0.00  0.00  0.29  0.29  0.33
==================================================================

 Only the high frequencies of the density were mixed in this cycle 
Symmetrising density
Calculating local potential
Calculating Hubbard U potential
 Density matrix in cubic harmonics:
     1.0000     0.0000     0.0000     0.0000     0.0000
     0.0000     0.0000     0.0000     0.0000     0.0000
     0.0000     0.0000     0.0000     0.0000     0.0000
     0.0000     0.0000     0.0000     0.0000     0.0000
     0.0000     0.0000     0.0000     0.0000     0.0000
     0.0000     0.0000     0.0000     0.0000     0.0000
     0.0000     0.0000     0.0000     1.0000     0.0000
     0.0000     0.0000     0.0000     0.0000     0.0000
     0.0000     0.0000     0.0000     0.0000     1.0000
     0.0000     0.0000     0.0000     0.0000     0.0000
 Hermiticity:        (-4.44089209850062616E-016,0.0000000000000000)
 Density matrix in cubic harmonics:
     1.0000     0.0000     0.0000     0.0000     0.0000
     0.0000     0.0000     0.0000     0.0000     0.0000
     0.0000     0.0000     0.0000     0.0000     0.0000
     0.0000     0.0000     0.0000     0.0000     0.0000
     0.0000     0.0000     0.0000     0.0000     0.0000
     0.0000     0.0000     0.0000     0.0000     0.0000
     0.0000     0.0000     0.0000     1.0000     0.0000
     0.0000     0.0000     0.0000     0.0000     0.0000
     0.0000     0.0000     0.0000     0.0000     1.0000
     0.0000     0.0000     0.0000     0.0000     0.0000
 Hermiticity:        (-4.44089209850062616E-016,0.0000000000000000)
Calculating non-local weights
Starting SCF cycle     2 of up to    30
 no. bands in each block=           8
Kinetic eigenvalue #   1 =     0.38349112E+02
Kinetic eigenvalue #   2 =     0.39990488E+02
Kinetic eigenvalue #   3 =     0.39990493E+02
Kinetic eigenvalue #   4 =     0.39595313E+02
Kinetic eigenvalue #   5 =     0.25081488E+02
Kinetic eigenvalue #   6 =     0.42428330E+02
Kinetic eigenvalue #   7 =     0.37521831E+02
Kinetic eigenvalue #   8 =     0.37548605E+02
Kinetic eigenvalue #   9 =     0.37897050E+02
Kinetic eigenvalue #  10 =     0.37447004E+02
Kinetic eigenvalue #  11 =     0.22586688E+02
Kinetic eigenvalue #  12 =     0.38044992E+02
Kinetic eigenvalue #  13 =     0.38184281E+02
Kinetic eigenvalue #  14 =     0.25170827E+02
Kinetic eigenvalue #  15 =     0.13793464E+02
Kinetic eigenvalue #  16 =     0.14429633E+02
Kinetic eigenvalue #  17 =     0.77523895E+01
 Diagonalising expanded subspace
 Copying updated data back
eigenvalue    1 init= -83.96     fin= -83.96     change= 0.1354E-08
eigenvalue    2 init= -53.14     fin= -53.14     change= 0.1507E-10
eigenvalue    3 init= -53.14     fin= -53.14     change= 0.1417E-10
eigenvalue    4 init= -52.98     fin= -52.98     change= 0.4133E-10
eigenvalue    5 init= -20.18     fin= -20.18     change= 0.5268E-07
eigenvalue    6 init= -7.507     fin= -7.507     change= 0.6192E-06
eigenvalue    7 init= -7.037     fin= -7.037     change= 0.1679E-06
eigenvalue    8 init= -7.036     fin= -7.036     change= 0.2023E-06
 Checking convergence criteria
 Diagonalising expanded subspace
 Copying updated data back
eigenvalue    9 init= -5.531     fin= -5.531     change= 0.1807E-07
eigenvalue   10 init= -5.361     fin= -5.361     change= 0.1437E-07
eigenvalue   11 init= -4.158     fin= -4.158     change= 0.7245E-06
eigenvalue   12 init= -3.529     fin= -3.529     change= 0.1106E-06
eigenvalue   13 init= -3.502     fin= -3.502     change= 0.2731E-06
eigenvalue   14 init= -1.726     fin= -1.726     change= 0.1223E-05
eigenvalue   15 init= 0.3069     fin= 0.3069     change= 0.1465E-06
eigenvalue   16 init= 0.4376     fin= 0.4376     change= 0.4577E-07
 Checking convergence criteria
 Diagonalising expanded subspace
 Copying updated data back
eigenvalue    9 init= -5.531     fin= -5.531     change= 0.1808E-07
eigenvalue   10 init= -5.361     fin= -5.361     change= 0.1514E-07
eigenvalue   11 init= -4.158     fin= -4.158     change= 0.9274E-06
eigenvalue   12 init= -3.529     fin= -3.529     change= 0.1106E-06
eigenvalue   13 init= -3.502     fin= -3.502     change= 0.3330E-06
eigenvalue   14 init= -1.726     fin= -1.726     change= 0.1655E-05
eigenvalue   15 init= 0.3069     fin= 0.3069     change= 0.1927E-06
eigenvalue   16 init= 0.4376     fin= 0.4376     change= 0.4577E-07
 Checking convergence criteria
 Diagonalising expanded subspace
 Copying updated data back
eigenvalue   17 init=  2.643     fin=  2.643     change= 0.4082E-06
 Checking convergence criteria
 no. bands in each block=           8
Kinetic eigenvalue #   1 =     0.38349090E+02
Kinetic eigenvalue #   2 =     0.39990480E+02
Kinetic eigenvalue #   3 =     0.39990668E+02
Kinetic eigenvalue #   4 =     0.39595305E+02
Kinetic eigenvalue #   5 =     0.25067322E+02
Kinetic eigenvalue #   6 =     0.42368098E+02
Kinetic eigenvalue #   7 =     0.37456701E+02
Kinetic eigenvalue #   8 =     0.37970508E+02
Kinetic eigenvalue #   9 =     0.37415830E+02
Kinetic eigenvalue #  10 =     0.37722072E+02
Kinetic eigenvalue #  11 =     0.19566627E+02
Kinetic eigenvalue #  12 =     0.37221812E+02
Kinetic eigenvalue #  13 =     0.40941785E+02
Kinetic eigenvalue #  14 =     0.25968250E+02
Kinetic eigenvalue #  15 =     0.13748312E+02
Kinetic eigenvalue #  16 =     0.81219537E+01
Kinetic eigenvalue #  17 =     0.17175361E+02
 Diagonalising expanded subspace
 Copying updated data back
eigenvalue    1 init= -83.96     fin= -83.96     change= 0.1423E-08
eigenvalue    2 init= -53.14     fin= -53.14     change= 0.1463E-10
eigenvalue    3 init= -53.14     fin= -53.14     change= 0.1448E-10
eigenvalue    4 init= -52.98     fin= -52.98     change= 0.3344E-10
eigenvalue    5 init= -20.18     fin= -20.18     change= 0.4006E-07
eigenvalue    6 init= -7.510     fin= -7.510     change= 0.4674E-06
eigenvalue    7 init= -7.041     fin= -7.041     change= 0.1686E-06
eigenvalue    8 init= -7.004     fin= -7.004     change= 0.7312E-07
 Checking convergence criteria
 Diagonalising expanded subspace
 Copying updated data back
eigenvalue    9 init= -5.563     fin= -5.563     change= 0.4156E-07
eigenvalue   10 init= -5.343     fin= -5.343     change= 0.6570E-08
eigenvalue   11 init= -4.421     fin= -4.421     change= 0.2473E-06
eigenvalue   12 init= -3.550     fin= -3.550     change= 0.1375E-06
eigenvalue   13 init= -3.399     fin= -3.399     change= 0.7439E-07
eigenvalue   14 init= -1.908     fin= -1.908     change= 0.4585E-06
eigenvalue   15 init= -.5740E-01 fin= -.5740E-01 change= 0.6309E-07
eigenvalue   16 init=  2.028     fin=  2.028     change= 0.5306E-06
 Checking convergence criteria
 Diagonalising expanded subspace
 Copying updated data back
eigenvalue   17 init=  2.485     fin=  2.485     change= 0.6476E-07
 Checking convergence criteria
 no. bands in each block=           8
Kinetic eigenvalue #   1 =     0.38349100E+02
Kinetic eigenvalue #   2 =     0.39990480E+02
Kinetic eigenvalue #   3 =     0.39990668E+02
Kinetic eigenvalue #   4 =     0.39595305E+02
Kinetic eigenvalue #   5 =     0.25067312E+02
Kinetic eigenvalue #   6 =     0.42368019E+02
Kinetic eigenvalue #   7 =     0.37456673E+02
Kinetic eigenvalue #   8 =     0.37970491E+02
Kinetic eigenvalue #   9 =     0.37415820E+02
Kinetic eigenvalue #  10 =     0.37722072E+02
Kinetic eigenvalue #  11 =     0.19566640E+02
Kinetic eigenvalue #  12 =     0.37221914E+02
Kinetic eigenvalue #  13 =     0.40941853E+02
Kinetic eigenvalue #  14 =     0.25968323E+02
Kinetic eigenvalue #  15 =     0.13748339E+02
Kinetic eigenvalue #  16 =     0.81216588E+01
Kinetic eigenvalue #  17 =     0.17175128E+02
 Diagonalising expanded subspace
 Copying updated data back
eigenvalue    1 init= -83.96     fin= -83.96     change= 0.1353E-08
eigenvalue    2 init= -53.14     fin= -53.14     change= 0.1451E-10
eigenvalue    3 init= -53.14     fin= -53.14     change= 0.1443E-10
eigenvalue    4 init= -52.98     fin= -52.98     change= 0.3249E-10
eigenvalue    5 init= -20.18     fin= -20.18     change= 0.3865E-07
eigenvalue    6 init= -7.510     fin= -7.510     change= 0.4399E-06
eigenvalue    7 init= -7.041     fin= -7.041     change= 0.1715E-06
eigenvalue    8 init= -7.004     fin= -7.004     change= 0.7526E-07
 Checking convergence criteria
 Diagonalising expanded subspace
[...]
Spin 1, kpoint ( 0.250000 -0.333333  0.333333 ) weight = 0.111111
+--------+-------------------+----------------+
|  Band  |   Eigenvalue      |    Occupancy   |                   <- occ
+--------+-------------------+----------------+                   <- occ
|     8  |   -.710765E+01    |   1.00000      |                   <- occ
|     9  |   -.573249E+01    |   1.00000      |                   <- occ
|    10  |   -.555911E+01    |   1.00000      |                   <- occ
|    11  |   -.425323E+01    |   1.00000      |                   <- occ
|    12  |   -.361645E+01    |  0.999868      |                   <- occ
|    13  |   -.359076E+01    |  0.999737      |                   <- occ
|    14  |   -.180048E+01    |   0.00000      |                   <- occ
|    15  |   0.269915E+00    |   0.00000      |                   <- occ
+--------+-------------------+----------------+                   <- occ
Spin 2, kpoint (-0.250000 -0.333333 -0.333333 ) weight = 0.111111
+--------+-------------------+----------------+
|  Band  |   Eigenvalue      |    Occupancy   |                   <- occ
+--------+-------------------+----------------+                   <- occ
|     8  |   -.578100E+01    |   1.00000      |                   <- occ
|     9  |   -.200357E+01    |  0.438538E-14  |                   <- occ
|    10  |   -.197497E+01    |  0.888178E-15  |                   <- occ
|    11  |   -.185770E+01    |   0.00000      |                   <- occ
|    12  |   -.106927E+01    |   0.00000      |                   <- occ
|    13  |   -.104434E+01    |   0.00000      |                   <- occ
|    14  |   -.204168E+00    |   0.00000      |                   <- occ
|    15  |   0.158873E+01    |   0.00000      |                   <- occ
+--------+-------------------+----------------+                   <- occ
Spin 2, kpoint (-0.250000  0.000000 -0.333333 ) weight = 0.111111
+--------+-------------------+----------------+
|  Band  |   Eigenvalue      |    Occupancy   |                   <- occ
+--------+-------------------+----------------+                   <- occ
|     8  |   -.572592E+01    |   1.00000      |                   <- occ
|     9  |   -.240693E+01    |  0.470176E-06  |                   <- occ
|    10  |   -.201593E+01    |  0.865974E-14  |                   <- occ
|    11  |   -.181869E+01    |   0.00000      |                   <- occ
|    12  |   -.111454E+01    |   0.00000      |                   <- occ
|    13  |   -.919029E+00    |   0.00000      |                   <- occ
|    14  |   -.391976E+00    |   0.00000      |                   <- occ
|    15  |   0.120135E+01    |   0.00000      |                   <- occ
+--------+-------------------+----------------+                   <- occ
Spin 2, kpoint (-0.250000  0.000000  0.333333 ) weight = 0.111111
+--------+-------------------+----------------+
|  Band  |   Eigenvalue      |    Occupancy   |                   <- occ
+--------+-------------------+----------------+                   <- occ
|     8  |   -.572592E+01    |   1.00000      |                   <- occ
|     9  |   -.240693E+01    |  0.470176E-06  |                   <- occ
|    10  |   -.201593E+01    |  0.865974E-14  |                   <- occ
|    11  |   -.181869E+01    |   0.00000      |                   <- occ
|    12  |   -.111454E+01    |   0.00000      |                   <- occ
|    13  |   -.919029E+00    |   0.00000      |                   <- occ
|    14  |   -.391976E+00    |   0.00000      |                   <- occ
|    15  |   0.120135E+01    |   0.00000      |                   <- occ
+--------+-------------------+----------------+                   <- occ
Spin 2, kpoint (-0.250000  0.333333  0.333333 ) weight = 0.111111
+--------+-------------------+----------------+
|  Band  |   Eigenvalue      |    Occupancy   |                   <- occ
+--------+-------------------+----------------+                   <- occ
|     8  |   -.578100E+01    |   1.00000      |                   <- occ
|     9  |   -.200357E+01    |  0.438538E-14  |                   <- occ
|    10  |   -.197497E+01    |  0.888178E-15  |                   <- occ
|    11  |   -.185770E+01    |   0.00000      |                   <- occ
|    12  |   -.106927E+01    |   0.00000      |                   <- occ
|    13  |   -.104434E+01    |   0.00000      |                   <- occ
|    14  |   -.204168E+00    |   0.00000      |                   <- occ
|    15  |   0.158873E+01    |   0.00000      |                   <- occ
+--------+-------------------+----------------+                   <- occ
Spin 2, kpoint ( 0.250000  0.333333  0.000000 ) weight = 0.111111
+--------+-------------------+----------------+
|  Band  |   Eigenvalue      |    Occupancy   |                   <- occ
+--------+-------------------+----------------+                   <- occ
|     8  |   -.572592E+01    |   1.00000      |                   <- occ
|     9  |   -.240693E+01    |  0.470181E-06  |                   <- occ
|    10  |   -.201593E+01    |  0.865974E-14  |                   <- occ
|    11  |   -.181869E+01    |   0.00000      |                   <- occ
|    12  |   -.111454E+01    |   0.00000      |                   <- occ
|    13  |   -.919029E+00    |   0.00000      |                   <- occ
|    14  |   -.391976E+00    |   0.00000      |                   <- occ
|    15  |   0.120135E+01    |   0.00000      |                   <- occ
+--------+-------------------+----------------+                   <- occ
Spin 2, kpoint (-0.250000 -0.333333  0.333333 ) weight = 0.111111
+--------+-------------------+----------------+
|  Band  |   Eigenvalue      |    Occupancy   |                   <- occ
+--------+-------------------+----------------+                   <- occ
|     8  |   -.578100E+01    |   1.00000      |                   <- occ
|     9  |   -.200357E+01    |  0.438538E-14  |                   <- occ
|    10  |   -.197497E+01    |  0.888178E-15  |                   <- occ
|    11  |   -.185770E+01    |   0.00000      |                   <- occ
|    12  |   -.106927E+01    |   0.00000      |                   <- occ
|    13  |   -.104434E+01    |   0.00000      |                   <- occ
|    14  |   -.204168E+00    |   0.00000      |                   <- occ
|    15  |   0.158873E+01    |   0.00000      |                   <- occ
+--------+-------------------+----------------+                   <- occ
Spin 2, kpoint (-0.250000  0.000000  0.000000 ) weight = 0.111111
+--------+-------------------+----------------+
|  Band  |   Eigenvalue      |    Occupancy   |                   <- occ
+--------+-------------------+----------------+                   <- occ
|     8  |   -.573011E+01    |   1.00000      |                   <- occ
|     9  |   -.281237E+01    |  0.208324E-01  |                   <- occ
|    10  |   -.210706E+01    |  0.107714E-11  |                   <- occ
|    11  |   -.179042E+01    |   0.00000      |                   <- occ
|    12  |   -.932623E+00    |   0.00000      |                   <- occ
|    13  |   -.932623E+00    |   0.00000      |                   <- occ
|    14  |   -.589662E+00    |   0.00000      |                   <- occ
|    15  |   0.190993E+01    |   0.00000      |                   <- occ
+--------+-------------------+----------------+                   <- occ
Spin 2, kpoint (-0.250000  0.333333  0.000000 ) weight = 0.111111
+--------+-------------------+----------------+
|  Band  |   Eigenvalue      |    Occupancy   |                   <- occ
+--------+-------------------+----------------+                   <- occ
|     8  |   -.572592E+01    |   1.00000      |                   <- occ
|     9  |   -.240693E+01    |  0.470181E-06  |                   <- occ
|    10  |   -.201593E+01    |  0.865974E-14  |                   <- occ
|    11  |   -.181869E+01    |   0.00000      |                   <- occ
|    12  |   -.111454E+01    |   0.00000      |                   <- occ
|    13  |   -.919029E+00    |   0.00000      |                   <- occ
|    14  |   -.391976E+00    |   0.00000      |                   <- occ
|    15  |   0.120135E+01    |   0.00000      |                   <- occ
+--------+-------------------+----------------+                   <- occ
Spin 2, kpoint ( 0.250000 -0.333333  0.333333 ) weight = 0.111111
+--------+-------------------+----------------+
|  Band  |   Eigenvalue      |    Occupancy   |                   <- occ
+--------+-------------------+----------------+                   <- occ
|     8  |   -.578100E+01    |   1.00000      |                   <- occ
|     9  |   -.200357E+01    |  0.438538E-14  |                   <- occ
|    10  |   -.197497E+01    |  0.888178E-15  |                   <- occ
|    11  |   -.185770E+01    |   0.00000      |                   <- occ
|    12  |   -.106927E+01    |   0.00000      |                   <- occ
|    13  |   -.104434E+01    |   0.00000      |                   <- occ
|    14  |   -.204168E+00    |   0.00000      |                   <- occ
|    15  |   0.158873E+01    |   0.00000      |                   <- occ
+--------+-------------------+----------------+                   <- occ
  achieved Hubbard U energy convergence:   2.0858335589152288E-006
Have a nice day.

Writing analysis data to MnO.castep_bin

Writing model to MnO.check
                            Ewald force:
Species #   1 Atom #   1 Fx: 483.919     Fy:0.185030E-13 Fz:0.185420E-13 eV/A
Species #   2 Atom #   1 Fx:-483.919     Fy:-.184017E-13 Fz:-.185483E-13 eV/A

 Pseudo atomic calculation performed for O 2s2 2p4

 Converged in 24 iterations to a total energy of -431.0932 eV

 Pseudo atomic calculation performed for Mn 3s2 3p6 3d5 4s2

 Converged in 38 iterations to a total energy of -2902.3718 eV
  Accepting available Hubbard U occ matrix: 

     Hubbard U occupation numbers
     ----------------------------
Species   Ion   l  spin               occupancies
==================================================================
  Mn       1    2   up:   0.77  0.98  0.98  1.00  1.00
                    dn:  -0.00  0.00  0.30  0.30  0.34
==================================================================

 Density matrix in cubic harmonics:
     0.9428    -0.0000     0.0000     0.0988     0.0000
     0.0000     0.0000     0.0000     0.0000     0.0000
    -0.0000     0.9998     0.0000     0.0000     0.0000
     0.0000     0.0000     0.0000     0.0000     0.0000
     0.0000     0.0000     0.9782    -0.0000    -0.0000
     0.0000     0.0000     0.0000     0.0000     0.0000
     0.0988     0.0000    -0.0000     0.8287    -0.0000
     0.0000     0.0000     0.0000     0.0000     0.0000
     0.0000     0.0000    -0.0000    -0.0000     0.9782
     0.0000     0.0000     0.0000     0.0000     0.0000
 Hermiticity:              (0.21933800810942272,0.0000000000000000)
 Density matrix in cubic harmonics:
     0.0843     0.0000     0.0000    -0.1460    -0.0000
     0.0000     0.0000     0.0000     0.0000     0.0000
     0.0000     0.0000     0.0000    -0.0000     0.0000
     0.0000     0.0000     0.0000     0.0000     0.0000
     0.0000     0.0000     0.3047     0.0000    -0.0000
     0.0000     0.0000     0.0000     0.0000     0.0000
    -0.1460    -0.0000     0.0000     0.2529    -0.0000
     0.0000     0.0000     0.0000     0.0000     0.0000
    -0.0000     0.0000    -0.0000    -0.0000     0.3047
     0.0000     0.0000     0.0000     0.0000     0.0000
 Hermiticity:              (0.64724788122710564,0.0000000000000000)
Hubbard U energy: Ha   =    0.066726692702
Hubbard U forces Ha/A    1     7.747877115931    4.724315314592    4.724315314592    0.000000000001    0.000000000000    0.000000000000
Hubbard U forces Ha/A    2     4.724315314592    4.724315314592    4.724315314592   -0.000000000046   -0.000000000000   -0.000000000000
  achieved Hubbard U energy convergence:   7.3498644949913272E-007

 *********************** Ewald forces ***********************
 *                                                          *
 *               Cartesian components (eV/A)                *
 * -------------------------------------------------------- *
 *                         x            y            z      *
 *                                                          *
 * O               1    483.91934      0.00000      0.00000 *
 * Mn              1   -483.91934     -0.00000     -0.00000 *
 *                                                          *
 ************************************************************

 ****************** Local potential forces ******************
 *                                                          *
 *               Cartesian components (eV/A)                *
 * -------------------------------------------------------- *
 *                         x            y            z      *
 *                                                          *
 * O               1   -453.62966     -0.00000     -0.00000 *
 * Mn              1    496.50804      0.00000      0.00000 *
 *                                                          *
 ************************************************************

 **************** Non-local potential forces ****************
 *                                                          *
 *               Cartesian components (eV/A)                *
 * -------------------------------------------------------- *
 *                         x            y            z      *
 *                                                          *
 * O               1    -29.96617      0.00000      0.00000 *
 * Mn              1    -13.23353     -0.00000     -0.00000 *
 *                                                          *
 ************************************************************

 ************** External Efield and/or dipole ***************
 *                                                          *
 *               Cartesian components (eV/A)                *
 * -------------------------------------------------------- *
 *                         x            y            z      *
 *                                                          *
 * O               1      0.00000      0.00000      0.00000 *
 * Mn              1      0.00000      0.00000      0.00000 *
 *                                                          *
 ************************************************************

 ***************** DM correction to forces ******************
 *                                                          *
 *               Cartesian components (eV/A)                *
 * -------------------------------------------------------- *
 *                         x            y            z      *
 *                                                          *
 * O               1      0.00000      0.00000      0.00000 *
 * Mn              1      0.00000      0.00000      0.00000 *
 *                                                          *
 ************************************************************

 ***************** Hubbard potential forces *****************
 *                                                          *
 *               Cartesian components (eV/A)                *
 * -------------------------------------------------------- *
 *                         x            y            z      *
 *                                                          *
 * O               1      0.00000      0.00000      0.00000 *
 * Mn              1     -0.00000     -0.00000     -0.00000 *
 *                                                          *
 ************************************************************

 ************************** Forces **************************
 *                                                          *
 *               Cartesian components (eV/A)                *
 * -------------------------------------------------------- *
 *                         x            y            z      *
 *                                                          *
 * O               1      0.48417      0.00000      0.00000 *
 * Mn              1     -0.48417     -0.00000     -0.00000 *
 *                                                          *
 ************************************************************

 Pseudo atomic calculation performed for O 2s2 2p4

 Converged in 24 iterations to a total energy of -431.0932 eV

 Pseudo atomic calculation performed for Mn 3s2 3p6 3d5 4s2

 Converged in 38 iterations to a total energy of -2902.3718 eV
Charge spilling parameter for spin component 1 = 0.19%
Charge spilling parameter for spin component 2 = 0.16%

                   Orbital Populations                  
  ---------------------------------------------------------------
     Ion    Atom   Orbital              Up        Down      Spin
  ---------------------------------------------------------------
      O     1      S                    0.963     0.960     0.003
      O     1      Px                   0.660     0.745    -0.085
      O     1      Py                   0.896     0.739     0.157
      O     1      Pz                   0.896     0.739     0.157
     Mn     1      S                    0.999     1.000    -0.001
     Mn     1      Px                   0.998     0.998    -0.000
     Mn     1      Py                   1.000     1.000     0.000
     Mn     1      Pz                   1.000     1.000     0.000
     Mn     1      Dzz                  0.925     0.064     0.861
     Mn     1      Dzy                  1.000    -0.000     1.000
     Mn     1      Dzx                  0.970     0.238     0.732
     Mn     1      Dxx-yy               0.776     0.191     0.585
     Mn     1      Dxy                  0.970     0.238     0.732
     Mn     1      S                    0.629     0.023     0.606
     Mn     1      Px                   0.042     0.022     0.020
     Mn     1      Py                   0.136     0.023     0.113
     Mn     1      Pz                   0.136     0.023     0.113
  ---------------------------------------------------------------
                           Total:      12.998     8.002     4.995
  ---------------------------------------------------------------
The total projected populations are: spin up   12.998   0.000, spin down    8.002   0.000, total   21.000   0.000

     Atomic Populations (Mulliken)
     -----------------------------
Species          Ion Spin      s      p      d      f     Total  Charge(e)   Spin(hbar/2)
=========================================================================================
  O               1   up:     0.96   2.45   0.00   0.00   3.42    -0.60        0.23
                  1   dn:     0.96   2.22   0.00   0.00   3.18
  Mn              1   up:     1.63   3.31   4.64   0.00   9.58     0.60        4.76
                  1   dn:     1.02   3.07   0.73   0.00   4.82
=========================================================================================

                 Bond                   Population        Spin       Length (A)
================================================================================
               O 1 -- Mn 1                   0.65        -0.03          1.60000
================================================================================


Writing analysis data to MnO.castep_bin

Writing model to MnO.check
Initialisation time =     13.48 s
Calculation time    =     18.36 s
Finalisation time   =      0.14 s
Total time          =     31.98 s
Peak Memory Use     = 519296 kB
  
Overall parallel efficiency rating: Good (78%)                                  
  
Data was distributed by:-
k-point (2-way); efficiency rating: Good (79%)                                  
  
Parallel notes:
1) Calculation only took 31.9 s, so efficiency estimates may be inaccurate.     
2) k-points were not fully distributed, there were 5 k-points per process.      
  
Efficiencies are estimated from the ratio of communication time to total time,
and do not include all the effects of serial operations or load imbalance.
