 +-------------------------------------------------+
 |                                                 |
 |      CCC   AA    SSS  TTTTT  EEEEE  PPPP        |
 |     C     A  A  S       T    E      P   P       |
 |     C     AAAA   SS     T    EEE    PPPP        |
 |     C     A  A     S    T    E      P           |
 |      CCC  A  A  SSS     T    EEEEE  P           |
 |                                                 |
 +-------------------------------------------------+
 |                                                 |
 | Welcome to Academic Release CASTEP version 19.11|          
 | Ab Initio Total Energy Program                  |
 |                                                 |
 | Authors:                                        |
 | M. Segall, M. Probert, C. Pickard, P. Hasnip,   |
 | S. Clark, K. Refson, J. R. Yates, M. Payne      |
 |                                                 |
 | Contributors:                                   |
 | P. Lindan, P. Haynes, J. White, V. Milman,      |
 | N. Govind, M. Gibson, P. Tulip, V. Cocula,      |
 | B. Montanari, D. Quigley, M. Glover,            |
 | L. Bernasconi, A. Perlov, M. Plummer,           |
 | E. McNellis, J. Meyer, J. Gale, D. Jochym       |
 | J. Aarons, B. Walker, R. Gillen, D. Jones       |
 | T. Green, I. J. Bush, C. J. Armstrong,          |
 | E. J. Higgins, E. L. Brown, M. S. McFly,        |
 | J. Wilkins, B-C. Shih, P. J. P. Byrne           |
 |                                                 |
 | Copyright (c) 2000 - 2018                       |
 |                                                 |
 |     Distributed under the terms of an           |
 |     Agreement between the United Kingdom        |
 |     Car-Parrinello (UKCP) Consortium,           |
 |     Daresbury Laboratory and Accelrys, Inc.     |
 |                                                 |
 | Please cite                                     |
 |                                                 |
 |     "First principles methods using CASTEP"     |
 |                                                 |
 |         Zeitschrift fuer Kristallographie       |
 |           220(5-6) pp. 567-570 (2005)           |
 |                                                 |
 | S. J. Clark, M. D. Segall, C. J. Pickard,       |
 | P. J. Hasnip, M. J. Probert, K. Refson,         |
 | M. C. Payne                                     |
 |                                                 |
 |       in all publications arising from          |
 |              your use of CASTEP                 |
 |                                                 |
 +-------------------------------------------------+
 |                                                 |
 |              http://www.castep.org              |
 |                                                 |
 +-------------------------------------------------+



 Compiled for linux_x86_64_gfortran7.0 on Mon, 30 Mar 2020 12:17:21 +0100
 from code version e1fe0d666396+ Castep191_branch Thu, 24 Oct 2019 13:54:03 +0100
 Compiler: GNU Fortran 7.5.0; Optimisation: fast
 MATHLIBS: Intel MKL(2019.0.5) (LAPACK version 3.7.0)
 FFT Lib : mkl
 Fundamental constants values: CODATA 2014

 Run started: Wed, 04 Nov 2020 19:30:04 +0000

 ******************************* User Parameters *******************************
iprint              : 3          # verbosity control (I)
reuse               : base.check # reuse filename (S)
writebib            : F          # output BibTeX references (L)
writeotfg           : F          # output OTFG files (L)
writecstesp         : F          # output cst_esp file (L)
spin                : 5.0000000  # net spin (R)
spinpolarised       : T          # spin polarised (L)
%block develcode    :            # developers code (B)
iprintu=8,
%endblock develcode :            # developers code (B)

 *******************************************************************************
  

 Atomic calculation performed for O: 1s2 2s2 2p4

 Converged in 60 iterations to an ae energy of -2027.926 eV


 Atomic calculation performed for Mn: 1s2 2s2 2p6 3s2 3p6 3d5 4s2

 Converged in 96 iterations to an ae energy of -31460.102 eV


 Pseudo atomic calculation performed for O 2s2 2p4

 Converged in 24 iterations to a total energy of -431.0932 eV

 Pseudo atomic calculation performed for Mn 3s2 3p6 3d5 4s2

 Converged in 38 iterations to a total energy of -2902.3718 eV
Initialising basis set.

Standard grid dimensions:  48  36  36
Fine grid dimensions:      48  36  36

Plane wave load balancing: max   5869 min   5847 average   5864
True cut-off energy of basis :  22.996
 Reusing data from model file base.check
 Number of symmetry ops  =           1

 ******************************* User Parameters *******************************
iprint              : 3          # verbosity control (I)
reuse               : base.check # reuse filename (S)
writebib            : F          # output BibTeX references (L)
writeotfg           : F          # output OTFG files (L)
writecstesp         : F          # output cst_esp file (L)
spin                : 5.0000000  # net spin (R)
spinpolarised       : T          # spin polarised (L)
%block develcode    :            # developers code (B)
iprintu=8,
%endblock develcode :            # developers code (B)

 *******************************************************************************
  

 Atomic calculation performed for O: 1s2 2s2 2p4

 Converged in 60 iterations to an ae energy of -2027.926 eV


 Atomic calculation performed for Mn: 1s2 2s2 2p6 3s2 3p6 3d5 4s2

 Converged in 96 iterations to an ae energy of -31460.102 eV


 Pseudo atomic calculation performed for O 2s2 2p4

 Converged in 24 iterations to a total energy of -431.0932 eV

 Pseudo atomic calculation performed for Mn 3s2 3p6 3d5 4s2

 Converged in 38 iterations to a total energy of -2902.3718 eV
Initialising basis set.

Standard grid dimensions:  48  36  36
Fine grid dimensions:      48  36  36

Plane wave load balancing: max   5869 min   5847 average   5864
True cut-off energy of basis :  22.996
K-point set unchanged, read in wavefunction.
Reusing density from model file.
 Calculation parallelised over 2 processes.
 Data is distributed by k-point(2-way)

 ************************************ Title ************************************
 

 ***************************** General Parameters ******************************
  
 output verbosity                               : extreme (3)
 reusing                                        : base.check
 write checkpoint data to                       : MnO.check
 type of calculation                            : single point energy
 stress calculation                             : off
 density difference calculation                 : off
 electron localisation func (ELF) calculation   : off
 Hirshfeld analysis                             : off
 unlimited duration calculation
 timing information                             : on
 memory usage estimate                          : on
 write extra output files                       : on
 write final potential to formatted file        : off
 write final density to formatted file          : off
 write BibTeX reference list                    : off
 write OTFG pseudopotential files               : off
 write electrostatic potential file             : off
 write bands file                               : on
 checkpoint writing                             : both castep_bin and check files
  
 output         length unit                     : A
 output           mass unit                     : amu
 output           time unit                     : ps
 output         charge unit                     : e
 output           spin unit                     : hbar/2
 output         energy unit                     : eV
 output          force unit                     : eV/A
 output       velocity unit                     : A/ps
 output       pressure unit                     : GPa
 output     inv_length unit                     : 1/A
 output      frequency unit                     : cm-1
 output force constant unit                     : eV/A**2
 output         volume unit                     : A**3
 output   IR intensity unit                     : (D/A)**2/amu
 output         dipole unit                     : D
 output         efield unit                     : eV/A/e
 output        entropy unit                     : J/mol/K
  
 wavefunctions paging                           : none
 random number generator seed                   : randomised (193011070)
 data distribution                              : optimal for this architecture
 optimization strategy                          : balance speed and memory

 *********************** Exchange-Correlation Parameters ***********************
  
 using functional                               : Local Density Approximation
 relativistic treatment                         : Koelling-Harmon
 DFT+D: Semi-empirical dispersion correction    : off

 ************************* Pseudopotential Parameters **************************
  
 pseudopotential representation                 : reciprocal space
 <beta|phi> representation                      : reciprocal space
 spin-orbit coupling                            : off

 **************************** Basis Set Parameters *****************************
  
 basis set accuracy                             : FINE
 plane wave basis set cut-off                   :   625.8619   eV
 size of standard grid                          :     1.7500
 size of   fine   gmax                          :    22.4293   1/A
 largest prime factor in FFT                    :          5
 finite basis set correction                    : none

 **************************** Electronic Parameters ****************************
  
 number of  electrons                           :  21.00    
 net charge of system                           :  0.000    
 net spin   of system                           :  5.000    
 number of  up  spins                           :  13.00    
 number of down spins                           :  8.000    
 treating system as spin-polarized
 number of bands                                :         17

 ********************* Electronic Minimization Parameters **********************
  
 Method: Treating system as metallic with density mixing treatment of electrons,
         and number of  SD  steps               :          1
         and number of  CG  steps               :          4
  
 total energy / atom convergence tol.           : 0.1000E-04   eV
 eigen-energy convergence tolerance             : 0.1000E-05   eV
 max force / atom convergence tol.              : ignored
 convergence tolerance window                   :          3   cycles
 max. number of SCF cycles                      :         30
 number of fixed-spin iterations                :         10
 smearing scheme                                : Gaussian
 smearing width                                 : 0.2000       eV
 Fermi energy convergence tolerance             : 0.2721E-13   eV
 periodic dipole correction                     : NONE

 ************************** Density Mixing Parameters **************************
  
 density-mixing scheme                          : Broyden
 max. length of mixing history                  :         20
 charge density mixing amplitude                : 0.8000    
   spin density mixing amplitude                :  2.000    
 charge density mixing g-vector                 :  1.500       1/A
   spin density mixing g-vector                 :  1.500       1/A

 *********************** Population Analysis Parameters ************************
  
 Population analysis with cutoff                :  3.000       A
 Population analysis output                     : summary and pdos components

 ******************************* Developer Code ********************************
  
 iprintu=8,

 *******************************************************************************
  

                           -------------------------------
                                      Unit Cell
                           -------------------------------
        Real Lattice(A)                      Reciprocal Lattice(1/A)
     6.6000000     0.0000000     0.0000000        0.951997774   0.000000000   0.000000000
     0.0000000     5.0000000     0.0000000        0.000000000   1.256637061   0.000000000
     0.0000000     0.0000000     5.0000000        0.000000000   0.000000000   1.256637061

                       Lattice parameters(A)       Cell Angles
                    a =      6.600000          alpha =   90.000000
                    b =      5.000000          beta  =   90.000000
                    c =      5.000000          gamma =   90.000000

                       Current cell volume =           165.000000       A**3
                                   density =             0.429924   AMU/A**3
                                           =             0.713905     g/cm^3

                           -------------------------------
                                     Cell Contents
                           -------------------------------
                         Total number of ions in cell =    2
                      Total number of species in cell =    2
                        Max number of any one species =    1

            xxxxxxxxxxxxxxxxxxxxxxxxxxxxxxxxxxxxxxxxxxxxxxxxxxxxxxxxxxxx
            x  Element    Atom        Fractional coordinates of atoms  x
            x            Number           u          v          w      x
            x----------------------------------------------------------x
            x  O            1         0.621212   0.500000   0.500000   x 
            x  Mn           1         0.378788   0.500000   0.500000   x 
            xxxxxxxxxxxxxxxxxxxxxxxxxxxxxxxxxxxxxxxxxxxxxxxxxxxxxxxxxxxx


                         No user defined ionic velocities

                           -------------------------------
                                   Details of Species
                           -------------------------------

                               Mass of species in AMU
                                    O   15.9994000
                                    Mn   54.9380500

                          Electric Quadrupole Moment (Barn)
                                    O   -0.0255800 Isotope 17
                                    Mn    0.3300000 Isotope 55


         Quantisation axis:    0.00000   0.00000   1.00000

         Units for Hubbard U values are eV
         xxxxxxxxxxxxxxxxxxxxxxxxxxxxxxxxxxxxxxxxxxxxxxxxxxxxxxxxxxxxxxxxxxxx
         |  Element     Atom     Hubbard U   values by orbital type         |
         |             Number      s          p          d          f       |
         |------------------------------------------------------------------|
         |O             1         0.00000    0.00000    0.00000    0.00000  |
         |Mn            1         0.00000    0.00000    0.00000    0.00000  |
         xxxxxxxxxxxxxxxxxxxxxxxxxxxxxxxxxxxxxxxxxxxxxxxxxxxxxxxxxxxxxxxxxxxx


                          Files used for pseudopotentials:
                                    O 2|1.1|17|20|23|20:21(qc=8)
                                    Mn 3|1.8|1.8|0.6|12|14|16|30U:40:31:32(qc=7)

                           -------------------------------
                              k-Points For BZ Sampling
                           -------------------------------
                       MP grid size for SCF calculation is  2  3  3
                            with an offset of   0.000  0.000  0.000
                       Number of kpoints used =             9

             +++++++++++++++++++++++++++++++++++++++++++++++++++++++
             +  Number       Fractional coordinates        Weight  +
             +-----------------------------------------------------+
             +     1  -0.250000  -0.333333  -0.333333   0.1111111  +
             +     2  -0.250000  -0.333333   0.333333   0.1111111  +
             +     3  -0.250000   0.000000  -0.333333   0.1111111  +
             +     4  -0.250000   0.000000   0.000000   0.1111111  +
             +     5  -0.250000   0.000000   0.333333   0.1111111  +
             +     6  -0.250000   0.333333   0.000000   0.1111111  +
             +     7  -0.250000   0.333333   0.333333   0.1111111  +
             +     8   0.250000  -0.333333   0.333333   0.1111111  +
             +     9   0.250000   0.333333   0.000000   0.1111111  +
             +++++++++++++++++++++++++++++++++++++++++++++++++++++++

                           -------------------------------
                               Symmetry and Constraints
                           -------------------------------

                      Maximum deviation from symmetry =  0.00000         ANG

                      Number of symmetry operations   =           1
                      Number of ionic constraints     =           3
                      Point group of crystal =     1: C1, 1, 1
                      Space group of crystal =    99: P4mm, P 4 -2

                    1 rotation    
                 (   1.00000000000   0.00000000000   0.00000000000 )
                 (   0.00000000000   1.00000000000   0.00000000000 )
                 (   0.00000000000   0.00000000000   1.00000000000 )
                    1 displacement
                 (   0.00000000000   0.00000000000   0.00000000000 )
                      symmetry related atoms: 
             O:    1
             Mn:    1


                         Centre of mass is constrained

            xxxxxxxxxxxxxxxxxxxxxxxxxxxxxxxxxxxxxxxxxxxxxxxxxxxxxxxxxxxxxx....
            x  Species       atom   co-ordinate  constraints.....         
            x-------------------------------------------------------------....
            x O                 1       x        29165.1220      0.0000      0.0000
            x O                 1       y            0.0000  29165.1220      0.0000
            x O                 1       z            0.0000      0.0000  29165.1220
            x Mn                1       x       100145.9388      0.0000      0.0000
            x Mn                1       y            0.0000 100145.9388      0.0000
            x Mn                1       z            0.0000      0.0000 100145.9388
            xxxxxxxxxxxxxxxxxxxxxxxxxxxxxxxxxxxxxxxxxxxxxxxxxxxxxxxxxxxxxx....

                         Number of cell constraints= 0
                         Cell constraints are:  1 2 3 4 5 6

                         External pressure/stress (GPa)
                          0.00000   0.00000   0.00000
                                    0.00000   0.00000
                                              0.00000
Density mixing plane wave load balancing: max      0 min      0 average      0
  
+---------------- MEMORY AND SCRATCH DISK ESTIMATES PER PROCESS --------------+
|                                                     Memory          Disk    |
| Baseline code, static data and system overhead      354.0 MB         0.0 MB |
| BLAS internal memory storage                          0.0 MB         0.0 MB |
| Model and support data                               67.2 MB       110.4 MB |
| Electronic energy minimisation requirements          51.6 MB         0.0 MB |
| Force calculation requirements                       13.8 MB         0.0 MB |
|                                               ----------------------------- |
| Approx. total storage required per process          472.8 MB       110.4 MB |
|                                                                             |
| Requirements will fluctuate during execution and may exceed these estimates |
+-----------------------------------------------------------------------------+
Calculating total energy with cut-off of  625.862 eV.
electronic_minimisation: Initialising

 Pseudo atomic calculation performed for O 2s2 2p4

 Converged in 24 iterations to a total energy of -431.0932 eV

 Pseudo atomic calculation performed for Mn 3s2 3p6 3d5 4s2

 Converged in 38 iterations to a total energy of -2902.3718 eV
  Initializing Hubbard U occ matrix: 

     Hubbard U occupation numbers
     ----------------------------
Species   Ion   l  spin               occupancies
==================================================================
  Mn       1    2   up:   0.00  0.00  1.00  1.00  1.00
                    dn:   0.00  0.00  1.00  1.00  1.00
==================================================================

electronic_minimisation: Initialising density mixing
 Initialising mixing density basis set.
Density mixing plane wave load balancing: max   5871 min   5871 average   5871
Calculating Ewald energy for ionic configuration
              Ewald: real-space energy =     359.826811 eV
        Ewald: reciprocal-space energy =      93.920754 eV
         Ewald: (sum_charge)**2 Energy =     459.468501 eV
         Ewald: (sum_charge**2) Energy =     769.135141 eV
                          Ewald Energy =    -774.856077 eV
Calculating non-Coulombic energy for ionic configuration
Symmetrising density
Calculating local potential
Calculating Hubbard U potential
 Density matrix in cubic harmonics:
     1.0000     0.0000     0.0000     0.0000     0.0000
     0.0000     0.0000     0.0000     0.0000     0.0000
     0.0000     0.0000     0.0000     0.0000     0.0000
     0.0000     0.0000     0.0000     0.0000     0.0000
     0.0000     0.0000     0.0000     0.0000     0.0000
     0.0000     0.0000     0.0000     0.0000     0.0000
     0.0000     0.0000     0.0000     1.0000     0.0000
     0.0000     0.0000     0.0000     0.0000     0.0000
     0.0000     0.0000     0.0000     0.0000     1.0000
     0.0000     0.0000     0.0000     0.0000     0.0000
 Hermiticity:        (-4.44089209850062616E-016,0.0000000000000000)
 Density matrix in cubic harmonics:
     1.0000     0.0000     0.0000     0.0000     0.0000
     0.0000     0.0000     0.0000     0.0000     0.0000
     0.0000     0.0000     0.0000     0.0000     0.0000
     0.0000     0.0000     0.0000     0.0000     0.0000
     0.0000     0.0000     0.0000     0.0000     0.0000
     0.0000     0.0000     0.0000     0.0000     0.0000
     0.0000     0.0000     0.0000     1.0000     0.0000
     0.0000     0.0000     0.0000     0.0000     0.0000
     0.0000     0.0000     0.0000     0.0000     1.0000
     0.0000     0.0000     0.0000     0.0000     0.0000
 Hermiticity:        (-4.44089209850062616E-016,0.0000000000000000)
Calculating non-local weights
Calculating KE and non-local eigenvalues to find total energy
 
Init
Exchange-correlation energy      =      -499.07913191541501874 eV
+Hartree energy                  =      2055.86480228865912068 eV
+Local pseudopotential energy    =     -5072.04198973965321784 eV
----------------------------------
Potential energy (total)         =     -3515.25631936638410480 eV
                                  
+Hubbard U energy                =        -1.43999999999999995 eV
+Kinetic energy                  =       776.91409201055114409 eV
+Non-local energy                =       152.02656221898419631 eV
+Electronic entropy term (-TS)   =         0.00000000000000000 eV
+Ewald energy (const)            =      -774.85607651874397561 eV
+non-Coulombic energy (const)    =        13.80612138473854067 eV
----------------------------------
Total free energy (E-TS)         =     -3348.80562027085397858 eV
 
NB est. 0K energy (E-0.5TS)      =     -3348.80562027085397858 eV
 
(XC correction to eigenvalue sum =        44.01690523340165129 eV)
(Hubbard U correction to eigenvalu         0.00000003000000000 eV)
 
------------------------------------------------------------------------ <-- SCF
SCF loop      Energy           Fermi           Energy gain       Timer   <-- SCF
                               energy          per atom          (sec)   <-- SCF
------------------------------------------------------------------------ <-- SCF
Initial  -3.34880562E+003  0.00000000E+000                        14.52  <-- SCF
Starting SCF cycle     1 of up to    30
 no. bands in each block=           8
Kinetic eigenvalue #   1 =     0.38348966E+02
Kinetic eigenvalue #   2 =     0.39990483E+02
Kinetic eigenvalue #   3 =     0.39990481E+02
Kinetic eigenvalue #   4 =     0.39595183E+02
Kinetic eigenvalue #   5 =     0.25112526E+02
Kinetic eigenvalue #   6 =     0.42186730E+02
Kinetic eigenvalue #   7 =     0.37391956E+02
Kinetic eigenvalue #   8 =     0.37412407E+02
Kinetic eigenvalue #   9 =     0.37900587E+02
Kinetic eigenvalue #  10 =     0.37455926E+02
Kinetic eigenvalue #  11 =     0.23372304E+02
Kinetic eigenvalue #  12 =     0.38336692E+02
Kinetic eigenvalue #  13 =     0.38452582E+02
Kinetic eigenvalue #  14 =     0.24719286E+02
Kinetic eigenvalue #  15 =     0.13655775E+02
Kinetic eigenvalue #  16 =     0.14273377E+02
Kinetic eigenvalue #  17 =     0.77296045E+01
 Calculating the R matrix for the precon Sinv operator
 Diagonalising expanded subspace
 Copying updated data back
eigenvalue    1 init= -83.96     fin= -83.96     change= 0.2188E-08
eigenvalue    2 init= -53.14     fin= -53.14     change= 0.6562E-10
eigenvalue    3 init= -53.14     fin= -53.14     change= 0.6352E-10
eigenvalue    4 init= -52.98     fin= -52.98     change= 0.3091E-08
eigenvalue    5 init= -20.25     fin= -20.25     change= 0.6485E-05
eigenvalue    6 init= -7.751     fin= -7.751     change= 0.4604E-04
eigenvalue    7 init= -7.381     fin= -7.381     change= 0.8895E-05
eigenvalue    8 init= -7.381     fin= -7.381     change= 0.8986E-05
 Checking convergence criteria
 Diagonalising expanded subspace
 Copying updated data back
eigenvalue    1 init= -83.96     fin= -83.96     change= 0.2204E-08
eigenvalue    2 init= -53.14     fin= -53.14     change= 0.6602E-10
eigenvalue    3 init= -53.14     fin= -53.14     change= 0.6382E-10
eigenvalue    4 init= -52.98     fin= -52.98     change= 0.3284E-08
eigenvalue    5 init= -20.25     fin= -20.25     change= 0.6838E-05
eigenvalue    6 init= -7.751     fin= -7.751     change= 0.4908E-04
eigenvalue    7 init= -7.381     fin= -7.381     change= 0.9601E-05
eigenvalue    8 init= -7.381     fin= -7.381     change= 0.9668E-05
 Checking convergence criteria
 Diagonalising expanded subspace
 Copying updated data back
eigenvalue    9 init= -6.088     fin= -6.088     change= 0.2079E-06
eigenvalue   10 init= -5.922     fin= -5.922     change= 0.9856E-06
eigenvalue   11 init= -4.294     fin= -4.294     change= 0.2604E-04
eigenvalue   12 init= -3.732     fin= -3.732     change= 0.5929E-05
eigenvalue   13 init= -3.704     fin= -3.704     change= 0.1074E-04
eigenvalue   14 init= -1.820     fin= -1.820     change= 0.2374E-04
eigenvalue   15 init= 0.2972     fin= 0.2972     change= 0.5233E-06
eigenvalue   16 init= 0.4271     fin= 0.4271     change= 0.5055E-06
 Checking convergence criteria
 Diagonalising expanded subspace
 Copying updated data back
eigenvalue    9 init= -6.088     fin= -6.088     change= 0.2084E-06
eigenvalue   10 init= -5.922     fin= -5.922     change= 0.1014E-05
eigenvalue   11 init= -4.294     fin= -4.294     change= 0.2863E-04
eigenvalue   12 init= -3.732     fin= -3.732     change= 0.6609E-05
eigenvalue   13 init= -3.704     fin= -3.704     change= 0.1185E-04
eigenvalue   14 init= -1.820     fin= -1.820     change= 0.2684E-04
eigenvalue   15 init= 0.2972     fin= 0.2972     change= 0.5776E-06
eigenvalue   16 init= 0.4271     fin= 0.4271     change= 0.6474E-06
 Checking convergence criteria
 Diagonalising expanded subspace
 Copying updated data back
eigenvalue   17 init=  2.638     fin=  2.638     change= 0.8892E-06
 Checking convergence criteria
 no. bands in each block=           8
Kinetic eigenvalue #   1 =     0.38348939E+02
Kinetic eigenvalue #   2 =     0.39990472E+02
Kinetic eigenvalue #   3 =     0.39990660E+02
Kinetic eigenvalue #   4 =     0.39595175E+02
Kinetic eigenvalue #   5 =     0.25099043E+02
Kinetic eigenvalue #   6 =     0.42122292E+02
Kinetic eigenvalue #   7 =     0.37333011E+02
Kinetic eigenvalue #   8 =     0.37797759E+02
Kinetic eigenvalue #   9 =     0.37459158E+02
Kinetic eigenvalue #  10 =     0.37726085E+02
Kinetic eigenvalue #  11 =     0.20289061E+02
Kinetic eigenvalue #  12 =     0.37545413E+02
Kinetic eigenvalue #  13 =     0.41168583E+02
Kinetic eigenvalue #  14 =     0.25570923E+02
Kinetic eigenvalue #  15 =     0.13556301E+02
Kinetic eigenvalue #  16 =     0.80528776E+01
Kinetic eigenvalue #  17 =     0.17119358E+02
 Calculating the R matrix for the precon Sinv operator
 Diagonalising expanded subspace
 Copying updated data back
eigenvalue    1 init= -83.96     fin= -83.96     change= 0.2316E-08
eigenvalue    2 init= -53.14     fin= -53.14     change= 0.6411E-10
eigenvalue    3 init= -53.14     fin= -53.14     change= 0.5404E-10
eigenvalue    4 init= -52.98     fin= -52.98     change= 0.2809E-08
eigenvalue    5 init= -20.25     fin= -20.25     change= 0.5797E-05
eigenvalue    6 init= -7.756     fin= -7.756     change= 0.4150E-04
eigenvalue    7 init= -7.385     fin= -7.385     change= 0.9575E-05
eigenvalue    8 init= -7.351     fin= -7.351     change= 0.5061E-05
 Checking convergence criteria
 Diagonalising expanded subspace
 Copying updated data back
eigenvalue    1 init= -83.96     fin= -83.96     change= 0.2357E-08
eigenvalue    2 init= -53.14     fin= -53.14     change= 0.6458E-10
eigenvalue    3 init= -53.14     fin= -53.14     change= 0.5436E-10
eigenvalue    4 init= -52.98     fin= -52.98     change= 0.2982E-08
eigenvalue    5 init= -20.25     fin= -20.25     change= 0.6104E-05
eigenvalue    6 init= -7.756     fin= -7.756     change= 0.4431E-04
eigenvalue    7 init= -7.385     fin= -7.385     change= 0.1031E-04
eigenvalue    8 init= -7.351     fin= -7.351     change= 0.5371E-05
 Checking convergence criteria
 Diagonalising expanded subspace
 Copying updated data back
eigenvalue    9 init= -6.123     fin= -6.123     change= 0.3346E-06
eigenvalue   10 init= -5.902     fin= -5.902     change= 0.6656E-06
eigenvalue   11 init= -4.541     fin= -4.541     change= 0.2062E-04
eigenvalue   12 init= -3.751     fin= -3.751     change= 0.8890E-05
eigenvalue   13 init= -3.604     fin= -3.604     change= 0.3221E-05
eigenvalue   14 init= -2.017     fin= -2.017     change= 0.2344E-04
eigenvalue   15 init= -.6975E-01 fin= -.6975E-01 change= 0.6015E-06
eigenvalue   16 init=  2.020     fin=  2.020     change= 0.2521E-05
 Checking convergence criteria
 Diagonalising expanded subspace
 Copying updated data back
eigenvalue    9 init= -6.123     fin= -6.123     change= 0.3410E-06
eigenvalue   10 init= -5.902     fin= -5.902     change= 0.6674E-06
eigenvalue   11 init= -4.541     fin= -4.541     change= 0.2303E-04
eigenvalue   12 init= -3.751     fin= -3.751     change= 0.9941E-05
eigenvalue   13 init= -3.604     fin= -3.604     change= 0.3465E-05
eigenvalue   14 init= -2.017     fin= -2.017     change= 0.2714E-04
eigenvalue   15 init= -.6975E-01 fin= -.6975E-01 change= 0.7039E-06
eigenvalue   16 init=  2.020     fin=  2.020     change= 0.3358E-05
 Checking convergence criteria
 Diagonalising expanded subspace
 Copying updated data back
eigenvalue   17 init=  2.480     fin=  2.480     change= 0.1310E-06
 Checking convergence criteria
 no. bands in each block=           8
Kinetic eigenvalue #   1 =     0.38348954E+02
Kinetic eigenvalue #   2 =     0.39990472E+02
Kinetic eigenvalue #   3 =     0.39990660E+02
Kinetic eigenvalue #   4 =     0.39595175E+02
Kinetic eigenvalue #   5 =     0.25099043E+02
Kinetic eigenvalue #   6 =     0.42122290E+02
Kinetic eigenvalue #   7 =     0.37333009E+02
Kinetic eigenvalue #   8 =     0.37797753E+02
Kinetic eigenvalue #   9 =     0.37459157E+02
Kinetic eigenvalue #  10 =     0.37726085E+02
Kinetic eigenvalue #  11 =     0.20289048E+02
Kinetic eigenvalue #  12 =     0.37545412E+02
Kinetic eigenvalue #  13 =     0.41168606E+02
Kinetic eigenvalue #  14 =     0.25570897E+02
Kinetic eigenvalue #  15 =     0.13556246E+02
Kinetic eigenvalue #  16 =     0.80526225E+01
Kinetic eigenvalue #  17 =     0.17119021E+02
 Calculating the R matrix for the precon Sinv operator
 Diagonalising expanded subspace
 Copying updated data back
eigenvalue    1 init= -83.96     fin= -83.96     change= 0.2188E-08
eigenvalue    2 init= -53.14     fin= -53.14     change= 0.6391E-10
eigenvalue    3 init= -53.14     fin= -53.14     change= 0.5412E-10
eigenvalue    4 init= -52.98     fin= -52.98     change= 0.2807E-08
eigenvalue    5 init= -20.25     fin= -20.25     change= 0.5801E-05
eigenvalue    6 init= -7.756     fin= -7.756     change= 0.4157E-04
eigenvalue    7 init= -7.385     fin= -7.385     change= 0.9572E-05
eigenvalue    8 init= -7.351     fin= -7.351     change= 0.5057E-05
 Checking convergence criteria
 Diagonalising expanded subspace
 Copying updated data back
eigenvalue    1 init= -83.96     fin= -83.96     change= 0.2223E-08
eigenvalue    2 init= -53.14     fin= -53.14     change= 0.6440E-10
eigenvalue    3 init= -53.14     fin= -53.14     change= 0.5448E-10
eigenvalue    4 init= -52.98     fin= -52.98     change= 0.2981E-08
eigenvalue    5 init= -20.25     fin= -20.25     change= 0.6106E-05
eigenvalue    6 init= -7.756     fin= -7.756     change= 0.4434E-04
eigenvalue    7 init= -7.385     fin= -7.385     change= 0.1031E-04
eigenvalue    8 init= -7.351     fin= -7.351     change= 0.5367E-05
 Checking convergence criteria
 Diagonalising expanded subspace
 Copying updated data back
eigenvalue    9 init= -6.123     fin= -6.123     change= 0.3348E-06
eigenvalue   10 init= -5.902     fin= -5.902     change= 0.6658E-06
eigenvalue   11 init= -4.541     fin= -4.541     change= 0.2062E-04
eigenvalue   12 init= -3.751     fin= -3.751     change= 0.8892E-05
eigenvalue   13 init= -3.604     fin= -3.604     change= 0.3209E-05
eigenvalue   14 init= -2.017     fin= -2.017     change= 0.2345E-04
eigenvalue   15 init= -.6975E-01 fin= -.6975E-01 change= 0.6074E-06
eigenvalue   16 init=  2.020     fin=  2.020     change= 0.2489E-05
 Checking convergence criteria
 Diagonalising expanded subspace
 Copying updated data back
eigenvalue    9 init= -6.123     fin= -6.123     change= 0.3418E-06
eigenvalue   10 init= -5.902     fin= -5.902     change= 0.6674E-06
eigenvalue   11 init= -4.541     fin= -4.541     change= 0.2299E-04
eigenvalue   12 init= -3.751     fin= -3.751     change= 0.9920E-05
eigenvalue   13 init= -3.604     fin= -3.604     change= 0.3452E-05
eigenvalue   14 init= -2.017     fin= -2.017     change= 0.2706E-04
eigenvalue   15 init= -.6975E-01 fin= -.6975E-01 change= 0.7128E-06
eigenvalue   16 init=  2.020     fin=  2.020     change= 0.3308E-05
 Checking convergence criteria
 Diagonalising expanded subspace
 Copying updated data back
eigenvalue   17 init=  2.480     fin=  2.480     change= 0.1567E-06
 Checking convergence criteria
 no. bands in each block=           8
Kinetic eigenvalue #   1 =     0.38348971E+02
Kinetic eigenvalue #   2 =     0.39990483E+02
Kinetic eigenvalue #   3 =     0.39990481E+02
Kinetic eigenvalue #   4 =     0.39595183E+02
Kinetic eigenvalue #   5 =     0.25112526E+02
Kinetic eigenvalue #   6 =     0.42186747E+02
Kinetic eigenvalue #   7 =     0.37391950E+02
Kinetic eigenvalue #   8 =     0.37412406E+02
Kinetic eigenvalue #   9 =     0.37900587E+02
Kinetic eigenvalue #  10 =     0.37455932E+02
Kinetic eigenvalue #  11 =     0.23372275E+02
Kinetic eigenvalue #  12 =     0.38336693E+02
Kinetic eigenvalue #  13 =     0.38452615E+02
Kinetic eigenvalue #  14 =     0.24719402E+02
Kinetic eigenvalue #  15 =     0.13655755E+02
Kinetic eigenvalue #  16 =     0.14273376E+02
Kinetic eigenvalue #  17 =     0.77276904E+01
 Calculating the R matrix for the precon Sinv operator
 Diagonalising expanded subspace
 Copying updated data back
eigenvalue    1 init= -83.96     fin= -83.96     change= 0.2153E-08
eigenvalue    2 init= -53.14     fin= -53.14     change= 0.6553E-10
eigenvalue    3 init= -53.14     fin= -53.14     change= 0.6336E-10
eigenvalue    4 init= -52.98     fin= -52.98     change= 0.3096E-08
eigenvalue    5 init= -20.25     fin= -20.25     change= 0.6495E-05
eigenvalue    6 init= -7.751     fin= -7.751     change= 0.4615E-04
eigenvalue    7 init= -7.381     fin= -7.381     change= 0.8889E-05
eigenvalue    8 init= -7.381     fin= -7.381     change= 0.8984E-05
 Checking convergence criteria
 Diagonalising expanded subspace
 Copying updated data back
eigenvalue    1 init= -83.96     fin= -83.96     change= 0.2168E-08
eigenvalue    2 init= -53.14     fin= -53.14     change= 0.6594E-10
eigenvalue    3 init= -53.14     fin= -53.14     change= 0.6361E-10
eigenvalue    4 init= -52.98     fin= -52.98     change= 0.3286E-08
eigenvalue    5 init= -20.25     fin= -20.25     change= 0.6841E-05
eigenvalue    6 init= -7.751     fin= -7.751     change= 0.4919E-04
eigenvalue    7 init= -7.381     fin= -7.381     change= 0.9586E-05
eigenvalue    8 init= -7.381     fin= -7.381     change= 0.9665E-05
 Checking convergence criteria
 Diagonalising expanded subspace
 Copying updated data back
eigenvalue    9 init= -6.088     fin= -6.088     change= 0.2079E-06
eigenvalue   10 init= -5.922     fin= -5.922     change= 0.9846E-06
eigenvalue   11 init= -4.294     fin= -4.294     change= 0.2640E-04
eigenvalue   12 init= -3.732     fin= -3.732     change= 0.5928E-05
eigenvalue   13 init= -3.704     fin= -3.704     change= 0.1072E-04
eigenvalue   14 init= -1.820     fin= -1.820     change= 0.2403E-04
eigenvalue   15 init= 0.2972     fin= 0.2972     change= 0.5462E-06
eigenvalue   16 init= 0.4271     fin= 0.4271     change= 0.5058E-06
 Checking convergence criteria
 Diagonalising expanded subspace
 Copying updated data back
eigenvalue    9 init= -6.088     fin= -6.088     change= 0.2084E-06
eigenvalue   10 init= -5.922     fin= -5.922     change= 0.1011E-05
eigenvalue   11 init= -4.294     fin= -4.294     change= 0.2886E-04
eigenvalue   12 init= -3.732     fin= -3.732     change= 0.6609E-05
eigenvalue   13 init= -3.704     fin= -3.704     change= 0.1181E-04
eigenvalue   14 init= -1.820     fin= -1.820     change= 0.2700E-04
eigenvalue   15 init= 0.2972     fin= 0.2972     change= 0.6138E-06
eigenvalue   16 init= 0.4271     fin= 0.4271     change= 0.6478E-06
 Checking convergence criteria
 Diagonalising expanded subspace
 Copying updated data back
eigenvalue   17 init=  2.638     fin=  2.638     change= 0.1199E-05
 Checking convergence criteria
 Diagonalising expanded subspace
 Copying updated data back
eigenvalue   17 init=  2.638     fin=  2.638     change= 0.2008E-05
 Checking convergence criteria
 no. bands in each block=           8
Kinetic eigenvalue #   1 =     0.38348960E+02
Kinetic eigenvalue #   2 =     0.39990472E+02
Kinetic eigenvalue #   3 =     0.39990660E+02
Kinetic eigenvalue #   4 =     0.39595175E+02
Kinetic eigenvalue #   5 =     0.25099043E+02
Kinetic eigenvalue #   6 =     0.42122289E+02
Kinetic eigenvalue #   7 =     0.37333012E+02
Kinetic eigenvalue #   8 =     0.37797753E+02
Kinetic eigenvalue #   9 =     0.37459155E+02
Kinetic eigenvalue #  10 =     0.37726085E+02
Kinetic eigenvalue #  11 =     0.20289011E+02
Kinetic eigenvalue #  12 =     0.37545438E+02
Kinetic eigenvalue #  13 =     0.41168603E+02
Kinetic eigenvalue #  14 =     0.25571076E+02
Kinetic eigenvalue #  15 =     0.13556085E+02
Kinetic eigenvalue #  16 =     0.80522571E+01
Kinetic eigenvalue #  17 =     0.17118951E+02
 Calculating the R matrix for the precon Sinv operator
 Diagonalising expanded subspace
 Copying updated data back
eigenvalue    1 init= -83.96     fin= -83.96     change= 0.2159E-08
eigenvalue    2 init= -53.14     fin= -53.14     change= 0.6359E-10
eigenvalue    3 init= -53.14     fin= -53.14     change= 0.5420E-10
eigenvalue    4 init= -52.98     fin= -52.98     change= 0.2808E-08
eigenvalue    5 init= -20.25     fin= -20.25     change= 0.5799E-05
eigenvalue    6 init= -7.756     fin= -7.756     change= 0.4156E-04
eigenvalue    7 init= -7.385     fin= -7.385     change= 0.9576E-05
eigenvalue    8 init= -7.351     fin= -7.351     change= 0.5058E-05
 Checking convergence criteria
 Diagonalising expanded subspace
 Copying updated data back
eigenvalue    1 init= -83.96     fin= -83.96     change= 0.2191E-08
eigenvalue    2 init= -53.14     fin= -53.14     change= 0.6408E-10
eigenvalue    3 init= -53.14     fin= -53.14     change= 0.5454E-10
eigenvalue    4 init= -52.98     fin= -52.98     change= 0.2982E-08
eigenvalue    5 init= -20.25     fin= -20.25     change= 0.6105E-05
eigenvalue    6 init= -7.756     fin= -7.756     change= 0.4434E-04
eigenvalue    7 init= -7.385     fin= -7.385     change= 0.1031E-04
eigenvalue    8 init= -7.351     fin= -7.351     change= 0.5367E-05
 Checking convergence criteria
 Diagonalising expanded subspace
 Copying updated data back
eigenvalue    9 init= -6.123     fin= -6.123     change= 0.3344E-06
eigenvalue   10 init= -5.902     fin= -5.902     change= 0.6655E-06
eigenvalue   11 init= -4.541     fin= -4.541     change= 0.2068E-04
eigenvalue   12 init= -3.751     fin= -3.751     change= 0.8857E-05
eigenvalue   13 init= -3.604     fin= -3.604     change= 0.3218E-05
eigenvalue   14 init= -2.017     fin= -2.017     change= 0.2335E-04
eigenvalue   15 init= -.6975E-01 fin= -.6975E-01 change= 0.6405E-06
eigenvalue   16 init=  2.020     fin=  2.020     change= 0.2539E-05
 Checking convergence criteria
 Diagonalising expanded subspace
 Copying updated data back
eigenvalue    9 init= -6.123     fin= -6.123     change= 0.3401E-06
eigenvalue   10 init= -5.902     fin= -5.902     change= 0.6675E-06
eigenvalue   11 init= -4.541     fin= -4.541     change= 0.2289E-04
eigenvalue   12 init= -3.751     fin= -3.751     change= 0.9896E-05
eigenvalue   13 init= -3.604     fin= -3.604     change= 0.3470E-05
eigenvalue   14 init= -2.017     fin= -2.017     change= 0.2660E-04
eigenvalue   15 init= -.6975E-01 fin= -.6975E-01 change= 0.7743E-06
eigenvalue   16 init=  2.020     fin=  2.020     change= 0.3311E-05
 Checking convergence criteria
 Diagonalising expanded subspace
 Copying updated data back
eigenvalue   17 init=  2.480     fin=  2.480     change= 0.1490E-06
 Checking convergence criteria
 no. bands in each block=           8
Kinetic eigenvalue #   1 =     0.37872827E+02
Kinetic eigenvalue #   2 =     0.39259389E+02
Kinetic eigenvalue #   3 =     0.39828255E+02
Kinetic eigenvalue #   4 =     0.39828260E+02
Kinetic eigenvalue #   5 =     0.25186723E+02
Kinetic eigenvalue #   6 =     0.43805622E+02
Kinetic eigenvalue #   7 =     0.37875739E+02
Kinetic eigenvalue #   8 =     0.37953623E+02
Kinetic eigenvalue #   9 =     0.36819316E+02
Kinetic eigenvalue #  10 =     0.32265673E+02
Kinetic eigenvalue #  11 =     0.22439585E+02
Kinetic eigenvalue #  12 =     0.36089903E+02
Kinetic eigenvalue #  13 =     0.36345366E+02
Kinetic eigenvalue #  14 =     0.23975481E+02
Kinetic eigenvalue #  15 =     0.13730900E+02
Kinetic eigenvalue #  16 =     0.14861435E+02
Kinetic eigenvalue #  17 =     0.80852684E+01
 Calculating the R matrix for the precon Sinv operator
 Diagonalising expanded subspace
 Copying updated data back
eigenvalue    1 init= -80.00     fin= -80.00     change= 0.2296E-08
eigenvalue    2 init= -49.54     fin= -49.54     change= 0.8832E-08
eigenvalue    3 init= -49.09     fin= -49.09     change= 0.9332E-10
eigenvalue    4 init= -49.09     fin= -49.09     change= 0.8764E-10
eigenvalue    5 init= -19.78     fin= -19.78     change= 0.1112E-04
eigenvalue    6 init= -6.687     fin= -6.688     change= 0.5116E-04
eigenvalue    7 init= -5.933     fin= -5.933     change= 0.9113E-05
eigenvalue    8 init= -5.931     fin= -5.931     change= 0.5442E-05
 Checking convergence criteria
 Diagonalising expanded subspace
 Copying updated data back
eigenvalue    1 init= -80.00     fin= -80.00     change= 0.2335E-08
eigenvalue    2 init= -49.54     fin= -49.54     change= 0.9282E-08
eigenvalue    3 init= -49.09     fin= -49.09     change= 0.9398E-10
eigenvalue    4 init= -49.09     fin= -49.09     change= 0.8813E-10
eigenvalue    5 init= -19.78     fin= -19.78     change= 0.1167E-04
eigenvalue    6 init= -6.687     fin= -6.688     change= 0.5425E-04
eigenvalue    7 init= -5.933     fin= -5.933     change= 0.9926E-05
eigenvalue    8 init= -5.931     fin= -5.931     change= 0.5820E-05
 Checking convergence criteria
 Diagonalising expanded subspace
 Copying updated data back
eigenvalue    9 init= -2.390     fin= -2.390     change= 0.8456E-05
eigenvalue   10 init= -2.267     fin= -2.267     change= 0.4387E-04
eigenvalue   11 init= -2.034     fin= -2.034     change= 0.7988E-04
eigenvalue   12 init= -1.293     fin= -1.293     change= 0.1364E-04
eigenvalue   13 init= -1.263     fin= -1.263     change= 0.4954E-04
eigenvalue   14 init= -.2832     fin= -.2833     change= 0.8081E-04
eigenvalue   15 init=  1.605     fin=  1.605     change= 0.8915E-06
eigenvalue   16 init=  1.835     fin=  1.835     change= 0.8613E-06
 Checking convergence criteria
 Diagonalising expanded subspace
 Copying updated data back
eigenvalue    9 init= -2.390     fin= -2.390     change= 0.8868E-05
eigenvalue   10 init= -2.267     fin= -2.267     change= 0.4771E-04
eigenvalue   11 init= -2.034     fin= -2.034     change= 0.8775E-04
eigenvalue   12 init= -1.293     fin= -1.293     change= 0.1551E-04
eigenvalue   13 init= -1.263     fin= -1.263     change= 0.5513E-04
eigenvalue   14 init= -.2832     fin= -.2833     change= 0.9082E-04
eigenvalue   15 init=  1.605     fin=  1.605     change= 0.9820E-06
eigenvalue   16 init=  1.835     fin=  1.835     change= 0.1077E-05
 Checking convergence criteria
 Diagonalising expanded subspace
 Copying updated data back
eigenvalue   17 init=  3.128     fin=  3.128     change= 0.4937E-05
 Checking convergence criteria
 Diagonalising expanded subspace
 Copying updated data back
eigenvalue   17 init=  3.128     fin=  3.128     change= 0.8565E-05
 Checking convergence criteria
 Diagonalising expanded subspace
 Copying updated data back
eigenvalue   17 init=  3.128     fin=  3.128     change= 0.1021E-04
 Checking convergence criteria
 Diagonalising expanded subspace
 Copying updated data back
eigenvalue   17 init=  3.128     fin=  3.128     change= 0.1094E-04
 Checking convergence criteria
 no. bands in each block=           8
Kinetic eigenvalue #   1 =     0.37872752E+02
Kinetic eigenvalue #   2 =     0.39259377E+02
Kinetic eigenvalue #   3 =     0.39828243E+02
Kinetic eigenvalue #   4 =     0.39828505E+02
Kinetic eigenvalue #   5 =     0.25173050E+02
Kinetic eigenvalue #   6 =     0.43723010E+02
Kinetic eigenvalue #   7 =     0.37749840E+02
Kinetic eigenvalue #   8 =     0.38728885E+02
Kinetic eigenvalue #   9 =     0.19304159E+02
Kinetic eigenvalue #  10 =     0.31832881E+02
Kinetic eigenvalue #  11 =     0.36757792E+02
Kinetic eigenvalue #  12 =     0.34455454E+02
Kinetic eigenvalue #  13 =     0.39782238E+02
Kinetic eigenvalue #  14 =     0.24529100E+02
Kinetic eigenvalue #  15 =     0.14893019E+02
Kinetic eigenvalue #  16 =     0.89241411E+01
Kinetic eigenvalue #  17 =     0.16019077E+02
 Calculating the R matrix for the precon Sinv operator
 Diagonalising expanded subspace
 Copying updated data back
eigenvalue    1 init= -80.00     fin= -80.00     change= 0.2157E-08
eigenvalue    2 init= -49.54     fin= -49.54     change= 0.8831E-08
eigenvalue    3 init= -49.09     fin= -49.09     change= 0.9005E-10
eigenvalue    4 init= -49.09     fin= -49.09     change= 0.6642E-10
eigenvalue    5 init= -19.78     fin= -19.78     change= 0.1113E-04
eigenvalue    6 init= -6.692     fin= -6.692     change= 0.5213E-04
eigenvalue    7 init= -5.941     fin= -5.941     change= 0.6957E-05
eigenvalue    8 init= -5.876     fin= -5.876     change= 0.4152E-05
 Checking convergence criteria
 Diagonalising expanded subspace
 Copying updated data back
eigenvalue    1 init= -80.00     fin= -80.00     change= 0.2179E-08
eigenvalue    2 init= -49.54     fin= -49.54     change= 0.9284E-08
eigenvalue    3 init= -49.09     fin= -49.09     change= 0.9062E-10
eigenvalue    4 init= -49.09     fin= -49.09     change= 0.6663E-10
eigenvalue    5 init= -19.78     fin= -19.78     change= 0.1177E-04
eigenvalue    6 init= -6.692     fin= -6.692     change= 0.5646E-04
eigenvalue    7 init= -5.941     fin= -5.941     change= 0.7406E-05
eigenvalue    8 init= -5.876     fin= -5.876     change= 0.4343E-05
 Checking convergence criteria
 Diagonalising expanded subspace
 Copying updated data back
eigenvalue    9 init= -2.563     fin= -2.563     change= 0.5300E-04
eigenvalue   10 init= -2.306     fin= -2.306     change= 0.3906E-04
eigenvalue   11 init= -2.209     fin= -2.209     change= 0.2230E-04
eigenvalue   12 init= -1.330     fin= -1.330     change= 0.3208E-04
eigenvalue   13 init= -1.151     fin= -1.151     change= 0.1040E-04
eigenvalue   14 init= -.4901     fin= -.4902     change= 0.1012E-03
eigenvalue   15 init=  1.209     fin=  1.209     change= 0.1797E-05
eigenvalue   16 init=  2.527     fin=  2.527     change= 0.1696E-04
 Checking convergence criteria
 Diagonalising expanded subspace
 Copying updated data back
eigenvalue    9 init= -2.563     fin= -2.563     change= 0.5805E-04
eigenvalue   10 init= -2.306     fin= -2.306     change= 0.4311E-04
eigenvalue   11 init= -2.209     fin= -2.209     change= 0.2346E-04
eigenvalue   12 init= -1.330     fin= -1.330     change= 0.3630E-04
eigenvalue   13 init= -1.151     fin= -1.151     change= 0.1118E-04
eigenvalue   14 init= -.4901     fin= -.4902     change= 0.1166E-03
eigenvalue   15 init=  1.209     fin=  1.209     change= 0.2204E-05
eigenvalue   16 init=  2.527     fin=  2.527     change= 0.2248E-04
 Checking convergence criteria
 Diagonalising expanded subspace
 Copying updated data back
eigenvalue    9 init= -2.563     fin= -2.563     change= 0.5821E-04
eigenvalue   10 init= -2.306     fin= -2.306     change= 0.4324E-04
eigenvalue   11 init= -2.209     fin= -2.209     change= 0.2346E-04
eigenvalue   12 init= -1.330     fin= -1.330     change= 0.3646E-04
eigenvalue   13 init= -1.151     fin= -1.151     change= 0.1118E-04
eigenvalue   14 init= -.4901     fin= -.4902     change= 0.1176E-03
eigenvalue   15 init=  1.209     fin=  1.209     change= 0.2214E-05
eigenvalue   16 init=  2.527     fin=  2.527     change= 0.2343E-04
 Checking convergence criteria
 Diagonalising expanded subspace
 Copying updated data back
eigenvalue   17 init=  4.238     fin=  4.238     change= 0.3232E-06
 Checking convergence criteria
 no. bands in each block=           8
Kinetic eigenvalue #   1 =     0.37872751E+02
Kinetic eigenvalue #   2 =     0.39259377E+02
Kinetic eigenvalue #   3 =     0.39828243E+02
Kinetic eigenvalue #   4 =     0.39828505E+02
Kinetic eigenvalue #   5 =     0.25173050E+02
Kinetic eigenvalue #   6 =     0.43723008E+02
Kinetic eigenvalue #   7 =     0.37749840E+02
Kinetic eigenvalue #   8 =     0.38728884E+02
Kinetic eigenvalue #   9 =     0.19304442E+02
Kinetic eigenvalue #  10 =     0.31832881E+02
Kinetic eigenvalue #  11 =     0.36757791E+02
Kinetic eigenvalue #  12 =     0.34455446E+02
Kinetic eigenvalue #  13 =     0.39782223E+02
Kinetic eigenvalue #  14 =     0.24529668E+02
Kinetic eigenvalue #  15 =     0.14893033E+02
Kinetic eigenvalue #  16 =     0.89240129E+01
Kinetic eigenvalue #  17 =     0.16026346E+02
 Calculating the R matrix for the precon Sinv operator
 Diagonalising expanded subspace
 Copying updated data back
eigenvalue    1 init= -80.00     fin= -80.00     change= 0.2161E-08
eigenvalue    2 init= -49.54     fin= -49.54     change= 0.8836E-08
eigenvalue    3 init= -49.09     fin= -49.09     change= 0.9001E-10
eigenvalue    4 init= -49.09     fin= -49.09     change= 0.6616E-10
eigenvalue    5 init= -19.78     fin= -19.78     change= 0.1114E-04
eigenvalue    6 init= -6.692     fin= -6.692     change= 0.5214E-04
eigenvalue    7 init= -5.941     fin= -5.941     change= 0.6958E-05
eigenvalue    8 init= -5.876     fin= -5.876     change= 0.4123E-05
 Checking convergence criteria
 Diagonalising expanded subspace
 Copying updated data back
eigenvalue    1 init= -80.00     fin= -80.00     change= 0.2183E-08
eigenvalue    2 init= -49.54     fin= -49.54     change= 0.9288E-08
eigenvalue    3 init= -49.09     fin= -49.09     change= 0.9054E-10
eigenvalue    4 init= -49.09     fin= -49.09     change= 0.6635E-10
eigenvalue    5 init= -19.78     fin= -19.78     change= 0.1178E-04
eigenvalue    6 init= -6.692     fin= -6.692     change= 0.5649E-04
eigenvalue    7 init= -5.941     fin= -5.941     change= 0.7408E-05
eigenvalue    8 init= -5.876     fin= -5.876     change= 0.4311E-05
 Checking convergence criteria
 Diagonalising expanded subspace
 Copying updated data back
eigenvalue    9 init= -2.563     fin= -2.563     change= 0.5309E-04
eigenvalue   10 init= -2.306     fin= -2.306     change= 0.3937E-04
eigenvalue   11 init= -2.209     fin= -2.209     change= 0.2229E-04
eigenvalue   12 init= -1.330     fin= -1.330     change= 0.3212E-04
eigenvalue   13 init= -1.151     fin= -1.151     change= 0.1032E-04
eigenvalue   14 init= -.4901     fin= -.4902     change= 0.1004E-03
eigenvalue   15 init=  1.209     fin=  1.209     change= 0.1843E-05
eigenvalue   16 init=  2.527     fin=  2.527     change= 0.1702E-04
 Checking convergence criteria
 Diagonalising expanded subspace
 Copying updated data back
eigenvalue    9 init= -2.563     fin= -2.563     change= 0.5811E-04
eigenvalue   10 init= -2.306     fin= -2.306     change= 0.4339E-04
eigenvalue   11 init= -2.209     fin= -2.209     change= 0.2345E-04
eigenvalue   12 init= -1.330     fin= -1.330     change= 0.3630E-04
eigenvalue   13 init= -1.151     fin= -1.151     change= 0.1109E-04
eigenvalue   14 init= -.4901     fin= -.4902     change= 0.1153E-03
eigenvalue   15 init=  1.209     fin=  1.209     change= 0.2268E-05
eigenvalue   16 init=  2.527     fin=  2.527     change= 0.2255E-04
 Checking convergence criteria
 Diagonalising expanded subspace
 Copying updated data back
eigenvalue    9 init= -2.563     fin= -2.563     change= 0.5834E-04
eigenvalue   10 init= -2.306     fin= -2.306     change= 0.4351E-04
eigenvalue   11 init= -2.209     fin= -2.209     change= 0.2345E-04
eigenvalue   12 init= -1.330     fin= -1.330     change= 0.3653E-04
eigenvalue   13 init= -1.151     fin= -1.151     change= 0.1110E-04
eigenvalue   14 init= -.4901     fin= -.4902     change= 0.1164E-03
eigenvalue   15 init=  1.209     fin=  1.209     change= 0.2283E-05
eigenvalue   16 init=  2.527     fin=  2.527     change= 0.2348E-04
 Checking convergence criteria
 Diagonalising expanded subspace
 Copying updated data back
eigenvalue   17 init=  4.238     fin=  4.238     change= 0.2766E-06
 Checking convergence criteria
 no. bands in each block=           8
Kinetic eigenvalue #   1 =     0.37872810E+02
Kinetic eigenvalue #   2 =     0.39259389E+02
Kinetic eigenvalue #   3 =     0.39828255E+02
Kinetic eigenvalue #   4 =     0.39828260E+02
Kinetic eigenvalue #   5 =     0.25186721E+02
Kinetic eigenvalue #   6 =     0.43805574E+02
Kinetic eigenvalue #   7 =     0.37875726E+02
Kinetic eigenvalue #   8 =     0.37953623E+02
Kinetic eigenvalue #   9 =     0.36819317E+02
Kinetic eigenvalue #  10 =     0.32265597E+02
Kinetic eigenvalue #  11 =     0.22439552E+02
Kinetic eigenvalue #  12 =     0.36089907E+02
Kinetic eigenvalue #  13 =     0.36345377E+02
Kinetic eigenvalue #  14 =     0.23975518E+02
Kinetic eigenvalue #  15 =     0.13729851E+02
Kinetic eigenvalue #  16 =     0.14861414E+02
Kinetic eigenvalue #  17 =     0.80823873E+01
 Calculating the R matrix for the precon Sinv operator
 Diagonalising expanded subspace
 Copying updated data back
eigenvalue    1 init= -80.00     fin= -80.00     change= 0.2358E-08
eigenvalue    2 init= -49.54     fin= -49.54     change= 0.8804E-08
eigenvalue    3 init= -49.09     fin= -49.09     change= 0.9321E-10
eigenvalue    4 init= -49.09     fin= -49.09     change= 0.8771E-10
eigenvalue    5 init= -19.78     fin= -19.78     change= 0.1108E-04
eigenvalue    6 init= -6.687     fin= -6.688     change= 0.5075E-04
eigenvalue    7 init= -5.933     fin= -5.933     change= 0.9123E-05
eigenvalue    8 init= -5.931     fin= -5.931     change= 0.5442E-05
 Checking convergence criteria
 Diagonalising expanded subspace
 Copying updated data back
eigenvalue    1 init= -80.00     fin= -80.00     change= 0.2397E-08
eigenvalue    2 init= -49.54     fin= -49.54     change= 0.9266E-08
eigenvalue    3 init= -49.09     fin= -49.09     change= 0.9385E-10
eigenvalue    4 init= -49.09     fin= -49.09     change= 0.8818E-10
eigenvalue    5 init= -19.78     fin= -19.78     change= 0.1166E-04
eigenvalue    6 init= -6.687     fin= -6.688     change= 0.5400E-04
eigenvalue    7 init= -5.933     fin= -5.933     change= 0.9942E-05
eigenvalue    8 init= -5.931     fin= -5.931     change= 0.5820E-05
 Checking convergence criteria
 Diagonalising expanded subspace
 Copying updated data back
eigenvalue    9 init= -2.390     fin= -2.390     change= 0.8454E-05
eigenvalue   10 init= -2.267     fin= -2.267     change= 0.4407E-04
eigenvalue   11 init= -2.034     fin= -2.034     change= 0.8025E-04
eigenvalue   12 init= -1.293     fin= -1.293     change= 0.1362E-04
eigenvalue   13 init= -1.263     fin= -1.263     change= 0.4941E-04
eigenvalue   14 init= -.2832     fin= -.2833     change= 0.8099E-04
eigenvalue   15 init=  1.605     fin=  1.605     change= 0.9026E-06
eigenvalue   16 init=  1.835     fin=  1.835     change= 0.8627E-06
 Checking convergence criteria
 Diagonalising expanded subspace
 Copying updated data back
eigenvalue    9 init= -2.390     fin= -2.390     change= 0.8867E-05
eigenvalue   10 init= -2.267     fin= -2.267     change= 0.4791E-04
eigenvalue   11 init= -2.034     fin= -2.034     change= 0.8780E-04
eigenvalue   12 init= -1.293     fin= -1.293     change= 0.1550E-04
eigenvalue   13 init= -1.263     fin= -1.263     change= 0.5508E-04
eigenvalue   14 init= -.2832     fin= -.2833     change= 0.9071E-04
eigenvalue   15 init=  1.605     fin=  1.605     change= 0.1007E-05
eigenvalue   16 init=  1.835     fin=  1.835     change= 0.1082E-05
 Checking convergence criteria
 Diagonalising expanded subspace
 Copying updated data back
eigenvalue   17 init=  3.128     fin=  3.128     change= 0.4483E-05
 Checking convergence criteria
 Diagonalising expanded subspace
 Copying updated data back
eigenvalue   17 init=  3.128     fin=  3.128     change= 0.9920E-05
 Checking convergence criteria
 Diagonalising expanded subspace
 Copying updated data back
eigenvalue   17 init=  3.128     fin=  3.128     change= 0.1220E-04
 Checking convergence criteria
 Diagonalising expanded subspace
 Copying updated data back
eigenvalue   17 init=  3.128     fin=  3.128     change= 0.1332E-04
 Checking convergence criteria
 no. bands in each block=           8
Kinetic eigenvalue #   1 =     0.37872752E+02
Kinetic eigenvalue #   2 =     0.39259377E+02
Kinetic eigenvalue #   3 =     0.39828243E+02
Kinetic eigenvalue #   4 =     0.39828505E+02
Kinetic eigenvalue #   5 =     0.25173050E+02
Kinetic eigenvalue #   6 =     0.43723007E+02
Kinetic eigenvalue #   7 =     0.37749840E+02
Kinetic eigenvalue #   8 =     0.38728886E+02
Kinetic eigenvalue #   9 =     0.19304417E+02
Kinetic eigenvalue #  10 =     0.31832909E+02
Kinetic eigenvalue #  11 =     0.36757792E+02
Kinetic eigenvalue #  12 =     0.34455431E+02
Kinetic eigenvalue #  13 =     0.39782232E+02
Kinetic eigenvalue #  14 =     0.24529650E+02
Kinetic eigenvalue #  15 =     0.14893062E+02
Kinetic eigenvalue #  16 =     0.89240042E+01
Kinetic eigenvalue #  17 =     0.16012492E+02
 Calculating the R matrix for the precon Sinv operator
 Diagonalising expanded subspace
 Copying updated data back
eigenvalue    1 init= -80.00     fin= -80.00     change= 0.2154E-08
eigenvalue    2 init= -49.54     fin= -49.54     change= 0.8830E-08
eigenvalue    3 init= -49.09     fin= -49.09     change= 0.9043E-10
eigenvalue    4 init= -49.09     fin= -49.09     change= 0.6639E-10
eigenvalue    5 init= -19.78     fin= -19.78     change= 0.1113E-04
eigenvalue    6 init= -6.692     fin= -6.692     change= 0.5211E-04
eigenvalue    7 init= -5.941     fin= -5.941     change= 0.6955E-05
eigenvalue    8 init= -5.876     fin= -5.876     change= 0.4172E-05
 Checking convergence criteria
 Diagonalising expanded subspace
 Copying updated data back
eigenvalue    1 init= -80.00     fin= -80.00     change= 0.2176E-08
eigenvalue    2 init= -49.54     fin= -49.54     change= 0.9283E-08
eigenvalue    3 init= -49.09     fin= -49.09     change= 0.9094E-10
eigenvalue    4 init= -49.09     fin= -49.09     change= 0.6659E-10
eigenvalue    5 init= -19.78     fin= -19.78     change= 0.1177E-04
eigenvalue    6 init= -6.692     fin= -6.692     change= 0.5644E-04
eigenvalue    7 init= -5.941     fin= -5.941     change= 0.7403E-05
eigenvalue    8 init= -5.876     fin= -5.876     change= 0.4367E-05
 Checking convergence criteria
 Diagonalising expanded subspace
 Copying updated data back
eigenvalue    9 init= -2.563     fin= -2.563     change= 0.5294E-04
eigenvalue   10 init= -2.306     fin= -2.306     change= 0.3933E-04
eigenvalue   11 init= -2.209     fin= -2.209     change= 0.2230E-04
eigenvalue   12 init= -1.330     fin= -1.330     change= 0.3202E-04
eigenvalue   13 init= -1.151     fin= -1.151     change= 0.1046E-04
eigenvalue   14 init= -.4901     fin= -.4902     change= 0.1001E-03
eigenvalue   15 init=  1.209     fin=  1.209     change= 0.1834E-05
eigenvalue   16 init=  2.527     fin=  2.527     change= 0.1699E-04
 Checking convergence criteria
 Diagonalising expanded subspace
 Copying updated data back
eigenvalue    9 init= -2.563     fin= -2.563     change= 0.5805E-04
eigenvalue   10 init= -2.306     fin= -2.306     change= 0.4339E-04
eigenvalue   11 init= -2.209     fin= -2.209     change= 0.2346E-04
eigenvalue   12 init= -1.330     fin= -1.330     change= 0.3627E-04
eigenvalue   13 init= -1.151     fin= -1.151     change= 0.1128E-04
eigenvalue   14 init= -.4901     fin= -.4902     change= 0.1153E-03
eigenvalue   15 init=  1.209     fin=  1.209     change= 0.2253E-05
eigenvalue   16 init=  2.527     fin=  2.527     change= 0.2252E-04
 Checking convergence criteria
 Diagonalising expanded subspace
 Copying updated data back
eigenvalue    9 init= -2.563     fin= -2.563     change= 0.5827E-04
eigenvalue   10 init= -2.306     fin= -2.306     change= 0.4351E-04
eigenvalue   11 init= -2.209     fin= -2.209     change= 0.2346E-04
eigenvalue   12 init= -1.330     fin= -1.330     change= 0.3647E-04
eigenvalue   13 init= -1.151     fin= -1.151     change= 0.1128E-04
eigenvalue   14 init= -.4901     fin= -.4902     change= 0.1164E-03
eigenvalue   15 init=  1.209     fin=  1.209     change= 0.2265E-05
eigenvalue   16 init=  2.527     fin=  2.527     change= 0.2349E-04
 Checking convergence criteria
 Diagonalising expanded subspace
 Copying updated data back
eigenvalue   17 init=  4.238     fin=  4.238     change= 0.3865E-06
 Checking convergence criteria
(Entering electronic_find_fermi_fix)
Smearing occupancies with Gaussians
Spin: 1, Min eigenvalue: -8.4755E+001 eV, Max eigenvalue:  3.4385E+000 eV
Fermi energy for up electrons = -3.2012E+000 eV [lower bound; range =  1.96E-014 eV]
Spin: 2, Min eigenvalue: -8.0796E+001 eV, Max eigenvalue:  5.0377E+000 eV
Fermi energy for down electrons = -3.1661E+000 eV [lower bound; range =  1.91E-014 eV]
(Leaving electronic_find_fermi_fix)
NB material has an apparent band gap of  1.4021E+000eV for spin up electrons.
NB material has an apparent band gap of  3.3133E+000eV for spin down electrons.
Calculating KE and non-local eigenvalues to find total energy
 
End of SCF cycle energies
Exchange-correlation energy      =      -499.07913191541501874 eV
+Hartree energy                  =      2055.86480228865912068 eV
+Local pseudopotential energy    =     -5072.04198973965321784 eV
----------------------------------
Potential energy (total)         =     -3517.37296160175355908 eV
                                  
+Hubbard U energy                =        -1.43999999999999995 eV
+Kinetic energy                  =       777.16086174844178913 eV
+Non-local energy                =       153.95541953518920764 eV
+Electronic entropy term (-TS)   =        -0.00123770472250964 eV
+Ewald energy (const)            =      -774.85607651874397561 eV
+non-Coulombic energy (const)    =        13.80612138473854067 eV
----------------------------------
Total free energy (E-TS)         =     -3348.74787315684943678 eV
 
NB est. 0K energy (E-0.5TS)      =     -3348.74725430448825136 eV
 
(XC correction to eigenvalue sum =        44.01690523340165129 eV)
(Hubbard U correction to eigenvalu         0.00000003000000000 eV)
 
      1  -3.34874787E+003 -3.18783064E+000  -2.88735570E-002      15.47  <-- SCF
 Calculate new overlap and Hubbard U matrix
 Density matrix in cubic harmonics:
     1.0000     0.0000     0.0000     0.0000     0.0000
     0.0000     0.0000     0.0000     0.0000     0.0000
     0.0000     0.0000     0.0000     0.0000     0.0000
     0.0000     0.0000     0.0000     0.0000     0.0000
     0.0000     0.0000     0.0000     0.0000     0.0000
     0.0000     0.0000     0.0000     0.0000     0.0000
     0.0000     0.0000     0.0000     1.0000     0.0000
     0.0000     0.0000     0.0000     0.0000     0.0000
     0.0000     0.0000     0.0000     0.0000     1.0000
     0.0000     0.0000     0.0000     0.0000     0.0000
 Hermiticity:        (-4.44089209850062616E-016,0.0000000000000000)
 Density matrix in cubic harmonics:
     1.0000     0.0000     0.0000     0.0000     0.0000
     0.0000     0.0000     0.0000     0.0000     0.0000
     0.0000     0.0000     0.0000     0.0000     0.0000
     0.0000     0.0000     0.0000     0.0000     0.0000
     0.0000     0.0000     0.0000     0.0000     0.0000
     0.0000     0.0000     0.0000     0.0000     0.0000
     0.0000     0.0000     0.0000     1.0000     0.0000
     0.0000     0.0000     0.0000     0.0000     0.0000
     0.0000     0.0000     0.0000     0.0000     1.0000
     0.0000     0.0000     0.0000     0.0000     0.0000
 Hermiticity:        (-4.44089209850062616E-016,0.0000000000000000)
 Density matrix in cubic harmonics:
     0.9485    -0.0000     0.0000     0.0889     0.0000
     0.0000     0.0000     0.0000     0.0000     0.0000
    -0.0000     0.9997     0.0000     0.0000     0.0000
     0.0000     0.0000     0.0000     0.0000     0.0000
     0.0000     0.0000     0.9803    -0.0000     0.0000
     0.0000     0.0000     0.0000     0.0000     0.0000
     0.0889     0.0000    -0.0000     0.8459    -0.0000
     0.0000     0.0000     0.0000     0.0000     0.0000
     0.0000     0.0000     0.0000    -0.0000     0.9803
     0.0000     0.0000     0.0000     0.0000     0.0000
 Hermiticity:              (0.20239859655337145,0.0000000000000000)
 Density matrix in cubic harmonics:
     0.0905    -0.0000     0.0000    -0.1567     0.0000
     0.0000     0.0000     0.0000     0.0000     0.0000
    -0.0000     0.0000     0.0000     0.0000    -0.0000
     0.0000     0.0000     0.0000     0.0000     0.0000
     0.0000     0.0000     0.3405    -0.0000     0.0000
     0.0000     0.0000     0.0000     0.0000     0.0000
    -0.1567     0.0000    -0.0000     0.2714    -0.0000
     0.0000     0.0000     0.0000     0.0000     0.0000
     0.0000    -0.0000     0.0000    -0.0000     0.3405
     0.0000     0.0000     0.0000     0.0000     0.0000
 Hermiticity:              (0.68012606061965064,0.0000000000000000)
  Hubbard energy diff=   4.8581455781009752E-002 eV <-- Hubbard_U
  ----------- Hubbard U: New occupation matrix calculated: --------------------
  -1.3914185442189904      eV <= Edirect

     Hubbard U occupation numbers
     ----------------------------
Species   Ion   l  spin               occupancies
==================================================================
  Mn       1    2   up:   0.79  0.98  0.98  1.00  1.00
                    dn:   0.00  0.00  0.34  0.34  0.36
==================================================================

 Only the high frequencies of the density were mixed in this cycle 
Symmetrising density
Calculating local potential
Calculating Hubbard U potential
 Density matrix in cubic harmonics:
     1.0000     0.0000     0.0000     0.0000     0.0000
     0.0000     0.0000     0.0000     0.0000     0.0000
     0.0000     0.0000     0.0000     0.0000     0.0000
     0.0000     0.0000     0.0000     0.0000     0.0000
     0.0000     0.0000     0.0000     0.0000     0.0000
     0.0000     0.0000     0.0000     0.0000     0.0000
     0.0000     0.0000     0.0000     1.0000     0.0000
     0.0000     0.0000     0.0000     0.0000     0.0000
     0.0000     0.0000     0.0000     0.0000     1.0000
     0.0000     0.0000     0.0000     0.0000     0.0000
 Hermiticity:        (-4.44089209850062616E-016,0.0000000000000000)
 Density matrix in cubic harmonics:
     1.0000     0.0000     0.0000     0.0000     0.0000
     0.0000     0.0000     0.0000     0.0000     0.0000
     0.0000     0.0000     0.0000     0.0000     0.0000
     0.0000     0.0000     0.0000     0.0000     0.0000
     0.0000     0.0000     0.0000     0.0000     0.0000
     0.0000     0.0000     0.0000     0.0000     0.0000
     0.0000     0.0000     0.0000     1.0000     0.0000
     0.0000     0.0000     0.0000     0.0000     0.0000
     0.0000     0.0000     0.0000     0.0000     1.0000
     0.0000     0.0000     0.0000     0.0000     0.0000
 Hermiticity:        (-4.44089209850062616E-016,0.0000000000000000)
Calculating non-local weights
Starting SCF cycle     2 of up to    30
 no. bands in each block=           8
Kinetic eigenvalue #   1 =     0.38349113E+02
Kinetic eigenvalue #   2 =     0.39990489E+02
Kinetic eigenvalue #   3 =     0.39990490E+02
Kinetic eigenvalue #   4 =     0.39595089E+02
Kinetic eigenvalue #   5 =     0.25137325E+02
Kinetic eigenvalue #   6 =     0.41992386E+02
Kinetic eigenvalue #   7 =     0.37304738E+02
Kinetic eigenvalue #   8 =     0.37320882E+02
Kinetic eigenvalue #   9 =     0.37902943E+02
Kinetic eigenvalue #  10 =     0.37461272E+02
Kinetic eigenvalue #  11 =     0.23949943E+02
Kinetic eigenvalue #  12 =     0.38532761E+02
Kinetic eigenvalue #  13 =     0.38635446E+02
Kinetic eigenvalue #  14 =     0.24397211E+02
Kinetic eigenvalue #  15 =     0.13561118E+02
Kinetic eigenvalue #  16 =     0.14168343E+02
Kinetic eigenvalue #  17 =     0.77018878E+01
 Diagonalising expanded subspace
 Copying updated data back
eigenvalue    1 init= -83.96     fin= -83.96     change= 0.1357E-08
eigenvalue    2 init= -53.14     fin= -53.14     change= 0.1410E-10
eigenvalue    3 init= -53.14     fin= -53.14     change= 0.1380E-10
eigenvalue    4 init= -52.98     fin= -52.98     change= 0.2083E-10
eigenvalue    5 init= -20.25     fin= -20.25     change= 0.3229E-07
eigenvalue    6 init= -7.751     fin= -7.751     change= 0.3945E-06
eigenvalue    7 init= -7.381     fin= -7.381     change= 0.7913E-07
eigenvalue    8 init= -7.381     fin= -7.381     change= 0.1022E-06
 Checking convergence criteria
 Diagonalising expanded subspace
 Copying updated data back
eigenvalue    9 init= -6.088     fin= -6.088     change= 0.9561E-08
eigenvalue   10 init= -5.922     fin= -5.922     change= 0.6340E-07
eigenvalue   11 init= -4.294     fin= -4.294     change= 0.3738E-06
eigenvalue   12 init= -3.732     fin= -3.732     change= 0.4672E-07
eigenvalue   13 init= -3.704     fin= -3.704     change= 0.1333E-06
eigenvalue   14 init= -1.820     fin= -1.820     change= 0.6105E-06
eigenvalue   15 init= 0.2972     fin= 0.2972     change= 0.3121E-07
eigenvalue   16 init= 0.4271     fin= 0.4271     change= 0.3443E-07
 Checking convergence criteria
 Diagonalising expanded subspace
 Copying updated data back
eigenvalue   17 init=  2.638     fin=  2.638     change= 0.4298E-06
 Checking convergence criteria
 no. bands in each block=           8
Kinetic eigenvalue #   1 =     0.38349092E+02
Kinetic eigenvalue #   2 =     0.39990479E+02
Kinetic eigenvalue #   3 =     0.39990669E+02
Kinetic eigenvalue #   4 =     0.39595081E+02
Kinetic eigenvalue #   5 =     0.25124395E+02
Kinetic eigenvalue #   6 =     0.41921682E+02
Kinetic eigenvalue #   7 =     0.37249658E+02
Kinetic eigenvalue #   8 =     0.37682735E+02
Kinetic eigenvalue #   9 =     0.37482053E+02
Kinetic eigenvalue #  10 =     0.37728187E+02
Kinetic eigenvalue #  11 =     0.20842770E+02
Kinetic eigenvalue #  12 =     0.37762477E+02
Kinetic eigenvalue #  13 =     0.41321083E+02
Kinetic eigenvalue #  14 =     0.25276518E+02
Kinetic eigenvalue #  15 =     0.13425990E+02
Kinetic eigenvalue #  16 =     0.80007539E+01
Kinetic eigenvalue #  17 =     0.17080626E+02
 Diagonalising expanded subspace
 Copying updated data back
eigenvalue    1 init= -83.96     fin= -83.96     change= 0.1434E-08
eigenvalue    2 init= -53.14     fin= -53.14     change= 0.1356E-10
eigenvalue    3 init= -53.14     fin= -53.14     change= 0.1355E-10
eigenvalue    4 init= -52.98     fin= -52.98     change= 0.1770E-10
eigenvalue    5 init= -20.25     fin= -20.25     change= 0.2450E-07
eigenvalue    6 init= -7.756     fin= -7.756     change= 0.2875E-06
eigenvalue    7 init= -7.385     fin= -7.385     change= 0.1048E-06
eigenvalue    8 init= -7.351     fin= -7.351     change= 0.4533E-07
 Checking convergence criteria
 Diagonalising expanded subspace
 Copying updated data back
eigenvalue    9 init= -6.123     fin= -6.123     change= 0.2226E-07
eigenvalue   10 init= -5.902     fin= -5.902     change= 0.4823E-07
eigenvalue   11 init= -4.541     fin= -4.541     change= 0.2784E-06
eigenvalue   12 init= -3.751     fin= -3.751     change= 0.1614E-06
eigenvalue   13 init= -3.604     fin= -3.604     change= 0.4388E-07
eigenvalue   14 init= -2.017     fin= -2.017     change= 0.5718E-06
eigenvalue   15 init= -.6975E-01 fin= -.6975E-01 change= 0.3891E-07
eigenvalue   16 init=  2.020     fin=  2.020     change= 0.2406E-06
 Checking convergence criteria
 Diagonalising expanded subspace
 Copying updated data back
eigenvalue   17 init=  2.480     fin=  2.480     change= 0.3532E-07
 Checking convergence criteria
 no. bands in each block=           8
Kinetic eigenvalue #   1 =     0.38349101E+02
Kinetic eigenvalue #   2 =     0.39990479E+02
Kinetic eigenvalue #   3 =     0.39990669E+02
Kinetic eigenvalue #   4 =     0.39595081E+02
Kinetic eigenvalue #   5 =     0.25124404E+02
Kinetic eigenvalue #   6 =     0.41921731E+02
Kinetic eigenvalue #   7 =     0.37249677E+02
Kinetic eigenvalue #   8 =     0.37682752E+02
Kinetic eigenvalue #   9 =     0.37482065E+02
Kinetic eigenvalue #  10 =     0.37728185E+02
Kinetic eigenvalue #  11 =     0.20842709E+02
Kinetic eigenvalue #  12 =     0.37762407E+02
Kinetic eigenvalue #  13 =     0.41321048E+02
Kinetic eigenvalue #  14 =     0.25276524E+02
Kinetic eigenvalue #  15 =     0.13425959E+02
Kinetic eigenvalue #  16 =     0.80006130E+01
Kinetic eigenvalue #  17 =     0.17079638E+02
 Diagonalising expanded subspace
 Copying updated data back
eigenvalue    1 init= -83.96     fin= -83.96     change= 0.1363E-08
eigenvalue    2 init= -53.14     fin= -53.14     change= 0.1349E-10
eigenvalue    3 init= -53.14     fin= -53.14     change= 0.1349E-10
eigenvalue    4 init= -52.98     fin= -52.98     change= 0.1759E-10
eigenvalue    5 init= -20.25     fin= -20.25     change= 0.2347E-07
eigenvalue    6 init= -7.756     fin= -7.756     change= 0.2702E-06
eigenvalue    7 init= -7.385     fin= -7.385     change= 0.1071E-06
eigenvalue    8 init= -7.351     fin= -7.351     change= 0.4692E-07
 Checking convergence criteria
 Diagonalising expanded subspace
 Copying updated data back
eigenvalue    9 init= -6.123     fin= -6.123     change= 0.2158E-07
eigenvalue   10 init= -5.902     fin= -5.902     change= 0.4831E-07
eigenvalue   11 init= -4.541     fin= -4.541     change= 0.2975E-06
eigenvalue   12 init= -3.751     fin= -3.751     change= 0.1709E-06
eigenvalue   13 init= -3.604     fin= -3.604     change= 0.4631E-07
eigenvalue   14 init= -2.017     fin= -2.017     change= 0.5890E-06
eigenvalue   15 init= -.6975E-01 fin= -.6975E-01 change= 0.4231E-07
eigenvalue   16 init=  2.020     fin=  2.020     change= 0.2357E-06
 Checking convergence criteria
 Diagonalising expanded subspace
 Copying updated data back
eigenvalue   17 init=  2.480     fin=  2.480     change= 0.9850E-07
 Checking convergence criteria
 no. bands in each block=           8
Kinetic eigenvalue #   1 =     0.38349117E+02
Kinetic eigenvalue #   2 =     0.39990489E+02
Kinetic eigenvalue #   3 =     0.39990490E+02
Kinetic eigenvalue #   4 =     0.39595089E+02
Kinetic eigenvalue #   5 =     0.25137360E+02
Kinetic eigenvalue #   6 =     0.41992355E+02
Kinetic eigenvalue #   7 =     0.37304759E+02
Kinetic eigenvalue #   8 =     0.37320888E+02
Kinetic eigenvalue #   9 =     0.37902943E+02
Kinetic eigenvalue #  10 =     0.37461264E+02
Kinetic eigenvalue #  11 =     0.23950117E+02
Kinetic eigenvalue #  12 =     0.38532761E+02
Kinetic eigenvalue #  13 =     0.38635438E+02
Kinetic eigenvalue #  14 =     0.24397632E+02
Kinetic eigenvalue #  15 =     0.13561077E+02
Kinetic eigenvalue #  16 =     0.14168343E+02
Kinetic eigenvalue #  17 =     0.77034715E+01
 Diagonalising expanded subspace
 Copying updated data back
eigenvalue    1 init= -83.96     fin= -83.96     change= 0.1331E-08
eigenvalue    2 init= -53.14     fin= -53.14     change= 0.1399E-10
eigenvalue    3 init= -53.14     fin= -53.14     change= 0.1368E-10
eigenvalue    4 init= -52.98     fin= -52.98     change= 0.2034E-10
eigenvalue    5 init= -20.25     fin= -20.25     change= 0.3012E-07
eigenvalue    6 init= -7.751     fin= -7.751     change= 0.3404E-06
eigenvalue    7 init= -7.381     fin= -7.381     change= 0.8747E-07
eigenvalue    8 init= -7.381     fin= -7.381     change= 0.1033E-06
 Checking convergence criteria
 Diagonalising expanded subspace
 Copying updated data back
eigenvalue    9 init= -6.088     fin= -6.088     change= 0.9561E-08
eigenvalue   10 init= -5.922     fin= -5.922     change= 0.6430E-07
eigenvalue   11 init= -4.294     fin= -4.294     change= 0.2808E-06
eigenvalue   12 init= -3.732     fin= -3.732     change= 0.4670E-07
eigenvalue   13 init= -3.704     fin= -3.704     change= 0.1441E-06
eigenvalue   14 init= -1.820     fin= -1.820     change= 0.4632E-06
eigenvalue   15 init= 0.2972     fin= 0.2972     change= 0.3187E-07
eigenvalue   16 init= 0.4271     fin= 0.4271     change= 0.3447E-07
 Checking convergence criteria
 Diagonalising expanded subspace
 Copying updated data back
eigenvalue   17 init=  2.638     fin=  2.638     change= 0.2904E-06
 Checking convergence criteria
 no. bands in each block=           8
Kinetic eigenvalue #   1 =     0.38349106E+02
Kinetic eigenvalue #   2 =     0.39990479E+02
Kinetic eigenvalue #   3 =     0.39990669E+02
Kinetic eigenvalue #   4 =     0.39595081E+02
Kinetic eigenvalue #   5 =     0.25124395E+02
Kinetic eigenvalue #   6 =     0.41921752E+02
Kinetic eigenvalue #   7 =     0.37249678E+02
Kinetic eigenvalue #   8 =     0.37682753E+02
Kinetic eigenvalue #   9 =     0.37482075E+02
Kinetic eigenvalue #  10 =     0.37728190E+02
Kinetic eigenvalue #  11 =     0.20842387E+02
Kinetic eigenvalue #  12 =     0.37762366E+02
Kinetic eigenvalue #  13 =     0.41321120E+02
Kinetic eigenvalue #  14 =     0.25275396E+02
Kinetic eigenvalue #  15 =     0.13426015E+02
Kinetic eigenvalue #  16 =     0.80003597E+01
Kinetic eigenvalue #  17 =     0.17079648E+02
 Diagonalising expanded subspace
 Copying updated data back
eigenvalue    1 init= -83.96     fin= -83.96     change= 0.1341E-08
eigenvalue    2 init= -53.14     fin= -53.14     change= 0.1342E-10
eigenvalue    3 init= -53.14     fin= -53.14     change= 0.1358E-10
eigenvalue    4 init= -52.98     fin= -52.98     change= 0.1772E-10
eigenvalue    5 init= -20.25     fin= -20.25     change= 0.2375E-07
eigenvalue    6 init= -7.756     fin= -7.756     change= 0.2702E-06
eigenvalue    7 init= -7.385     fin= -7.385     change= 0.1065E-06
eigenvalue    8 init= -7.351     fin= -7.351     change= 0.4706E-07
 Checking convergence criteria
 Diagonalising expanded subspace
 Copying updated data back
eigenvalue    9 init= -6.123     fin= -6.123     change= 0.2272E-07
[...]
Spin 1, kpoint ( 0.250000 -0.333333  0.333333 ) weight = 0.111111
+--------+-------------------+----------------+
|  Band  |   Eigenvalue      |    Occupancy   |                   <- occ
+--------+-------------------+----------------+                   <- occ
|     8  |   -.731874E+01    |   1.00000      |                   <- occ
|     9  |   -.593653E+01    |   1.00000      |                   <- occ
|    10  |   -.577278E+01    |   1.00000      |                   <- occ
|    11  |   -.422628E+01    |   1.00000      |                   <- occ
|    12  |   -.367550E+01    |  0.999939      |                   <- occ
|    13  |   -.364601E+01    |  0.999859      |                   <- occ
|    14  |   -.176629E+01    |   0.00000      |                   <- occ
|    15  |   0.324889E+00    |   0.00000      |                   <- occ
+--------+-------------------+----------------+                   <- occ
Spin 2, kpoint (-0.250000 -0.333333 -0.333333 ) weight = 0.111111
+--------+-------------------+----------------+
|  Band  |   Eigenvalue      |    Occupancy   |                   <- occ
+--------+-------------------+----------------+                   <- occ
|     8  |   -.590664E+01    |   1.00000      |                   <- occ
|     9  |   -.226500E+01    |  0.430680E-09  |                   <- occ
|    10  |   -.214734E+01    |  0.164002E-11  |                   <- occ
|    11  |   -.196051E+01    |   0.00000      |                   <- occ
|    12  |   -.119673E+01    |   0.00000      |                   <- occ
|    13  |   -.116581E+01    |   0.00000      |                   <- occ
|    14  |   -.225815E+00    |   0.00000      |                   <- occ
|    15  |   0.163311E+01    |   0.00000      |                   <- occ
+--------+-------------------+----------------+                   <- occ
Spin 2, kpoint (-0.250000  0.000000 -0.333333 ) weight = 0.111111
+--------+-------------------+----------------+
|  Band  |   Eigenvalue      |    Occupancy   |                   <- occ
+--------+-------------------+----------------+                   <- occ
|     8  |   -.585147E+01    |   1.00000      |                   <- occ
|     9  |   -.247397E+01    |  0.161531E-05  |                   <- occ
|    10  |   -.221161E+01    |  0.374025E-10  |                   <- occ
|    11  |   -.208490E+01    |  0.647260E-13  |                   <- occ
|    12  |   -.123519E+01    |   0.00000      |                   <- occ
|    13  |   -.105081E+01    |   0.00000      |                   <- occ
|    14  |   -.428584E+00    |   0.00000      |                   <- occ
|    15  |   0.123816E+01    |   0.00000      |                   <- occ
+--------+-------------------+----------------+                   <- occ
Spin 2, kpoint (-0.250000  0.000000  0.333333 ) weight = 0.111111
+--------+-------------------+----------------+
|  Band  |   Eigenvalue      |    Occupancy   |                   <- occ
+--------+-------------------+----------------+                   <- occ
|     8  |   -.585147E+01    |   1.00000      |                   <- occ
|     9  |   -.247397E+01    |  0.161531E-05  |                   <- occ
|    10  |   -.221161E+01    |  0.374025E-10  |                   <- occ
|    11  |   -.208490E+01    |  0.647260E-13  |                   <- occ
|    12  |   -.123519E+01    |   0.00000      |                   <- occ
|    13  |   -.105081E+01    |   0.00000      |                   <- occ
|    14  |   -.428584E+00    |   0.00000      |                   <- occ
|    15  |   0.123816E+01    |   0.00000      |                   <- occ
+--------+-------------------+----------------+                   <- occ
Spin 2, kpoint (-0.250000  0.333333  0.333333 ) weight = 0.111111
+--------+-------------------+----------------+
|  Band  |   Eigenvalue      |    Occupancy   |                   <- occ
+--------+-------------------+----------------+                   <- occ
|     8  |   -.590664E+01    |   1.00000      |                   <- occ
|     9  |   -.226500E+01    |  0.430680E-09  |                   <- occ
|    10  |   -.214734E+01    |  0.164002E-11  |                   <- occ
|    11  |   -.196051E+01    |   0.00000      |                   <- occ
|    12  |   -.119673E+01    |   0.00000      |                   <- occ
|    13  |   -.116581E+01    |   0.00000      |                   <- occ
|    14  |   -.225815E+00    |   0.00000      |                   <- occ
|    15  |   0.163311E+01    |   0.00000      |                   <- occ
+--------+-------------------+----------------+                   <- occ
Spin 2, kpoint ( 0.250000  0.333333  0.000000 ) weight = 0.111111
+--------+-------------------+----------------+
|  Band  |   Eigenvalue      |    Occupancy   |                   <- occ
+--------+-------------------+----------------+                   <- occ
|     8  |   -.585147E+01    |   1.00000      |                   <- occ
|     9  |   -.247397E+01    |  0.161531E-05  |                   <- occ
|    10  |   -.221161E+01    |  0.374025E-10  |                   <- occ
|    11  |   -.208490E+01    |  0.647260E-13  |                   <- occ
|    12  |   -.123519E+01    |   0.00000      |                   <- occ
|    13  |   -.105081E+01    |   0.00000      |                   <- occ
|    14  |   -.428584E+00    |   0.00000      |                   <- occ
|    15  |   0.123816E+01    |   0.00000      |                   <- occ
+--------+-------------------+----------------+                   <- occ
Spin 2, kpoint (-0.250000 -0.333333  0.333333 ) weight = 0.111111
+--------+-------------------+----------------+
|  Band  |   Eigenvalue      |    Occupancy   |                   <- occ
+--------+-------------------+----------------+                   <- occ
|     8  |   -.590664E+01    |   1.00000      |                   <- occ
|     9  |   -.226500E+01    |  0.430680E-09  |                   <- occ
|    10  |   -.214734E+01    |  0.164002E-11  |                   <- occ
|    11  |   -.196051E+01    |   0.00000      |                   <- occ
|    12  |   -.119673E+01    |   0.00000      |                   <- occ
|    13  |   -.116581E+01    |   0.00000      |                   <- occ
|    14  |   -.225815E+00    |   0.00000      |                   <- occ
|    15  |   0.163311E+01    |   0.00000      |                   <- occ
+--------+-------------------+----------------+                   <- occ
Spin 2, kpoint (-0.250000  0.000000  0.000000 ) weight = 0.111111
+--------+-------------------+----------------+
|  Band  |   Eigenvalue      |    Occupancy   |                   <- occ
+--------+-------------------+----------------+                   <- occ
|     8  |   -.585570E+01    |   1.00000      |                   <- occ
|     9  |   -.280216E+01    |  0.977487E-02  |                   <- occ
|    10  |   -.238320E+01    |  0.587236E-07  |                   <- occ
|    11  |   -.205310E+01    |  0.116018E-13  |                   <- occ
|    12  |   -.106414E+01    |   0.00000      |                   <- occ
|    13  |   -.106414E+01    |   0.00000      |                   <- occ
|    14  |   -.636659E+00    |   0.00000      |                   <- occ
|    15  |   0.190773E+01    |   0.00000      |                   <- occ
+--------+-------------------+----------------+                   <- occ
Spin 2, kpoint (-0.250000  0.333333  0.000000 ) weight = 0.111111
+--------+-------------------+----------------+
|  Band  |   Eigenvalue      |    Occupancy   |                   <- occ
+--------+-------------------+----------------+                   <- occ
|     8  |   -.585147E+01    |   1.00000      |                   <- occ
|     9  |   -.247397E+01    |  0.161531E-05  |                   <- occ
|    10  |   -.221161E+01    |  0.374025E-10  |                   <- occ
|    11  |   -.208490E+01    |  0.647260E-13  |                   <- occ
|    12  |   -.123519E+01    |   0.00000      |                   <- occ
|    13  |   -.105081E+01    |   0.00000      |                   <- occ
|    14  |   -.428584E+00    |   0.00000      |                   <- occ
|    15  |   0.123816E+01    |   0.00000      |                   <- occ
+--------+-------------------+----------------+                   <- occ
Spin 2, kpoint ( 0.250000 -0.333333  0.333333 ) weight = 0.111111
+--------+-------------------+----------------+
|  Band  |   Eigenvalue      |    Occupancy   |                   <- occ
+--------+-------------------+----------------+                   <- occ
|     8  |   -.590664E+01    |   1.00000      |                   <- occ
|     9  |   -.226500E+01    |  0.430680E-09  |                   <- occ
|    10  |   -.214734E+01    |  0.164002E-11  |                   <- occ
|    11  |   -.196051E+01    |   0.00000      |                   <- occ
|    12  |   -.119673E+01    |   0.00000      |                   <- occ
|    13  |   -.116581E+01    |   0.00000      |                   <- occ
|    14  |   -.225815E+00    |   0.00000      |                   <- occ
|    15  |   0.163311E+01    |   0.00000      |                   <- occ
+--------+-------------------+----------------+                   <- occ
  achieved Hubbard U energy convergence:   7.1796573394844465E-008
Have a nice day.

Writing analysis data to MnO.castep_bin

Writing model to MnO.check
                            Ewald force:
Species #   1 Atom #   1 Fx: 483.919     Fy:0.185030E-13 Fz:0.185420E-13 eV/A
Species #   2 Atom #   1 Fx:-483.919     Fy:-.184017E-13 Fz:-.185483E-13 eV/A

 Pseudo atomic calculation performed for O 2s2 2p4

 Converged in 24 iterations to a total energy of -431.0932 eV

 Pseudo atomic calculation performed for Mn 3s2 3p6 3d5 4s2

 Converged in 38 iterations to a total energy of -2902.3718 eV
  Accepting available Hubbard U occ matrix: 

     Hubbard U occupation numbers
     ----------------------------
Species   Ion   l  spin               occupancies
==================================================================
  Mn       1    2   up:   0.78  0.98  0.98  1.00  1.00
                    dn:   0.00  0.00  0.33  0.33  0.35
==================================================================

 Density matrix in cubic harmonics:
     0.9460    -0.0000     0.0000     0.0932     0.0000
     0.0000     0.0000     0.0000     0.0000     0.0000
    -0.0000     0.9996     0.0000     0.0000    -0.0000
     0.0000     0.0000     0.0000     0.0000     0.0000
     0.0000     0.0000     0.9793    -0.0000    -0.0000
     0.0000     0.0000     0.0000     0.0000     0.0000
     0.0932     0.0000    -0.0000     0.8384    -0.0000
     0.0000     0.0000     0.0000     0.0000     0.0000
     0.0000    -0.0000    -0.0000    -0.0000     0.9793
     0.0000     0.0000     0.0000     0.0000     0.0000
 Hermiticity:              (0.21011536018822785,0.0000000000000000)
 Density matrix in cubic harmonics:
     0.0885    -0.0000    -0.0000    -0.1531     0.0000
     0.0000     0.0000     0.0000     0.0000     0.0000
    -0.0000     0.0000    -0.0000     0.0000    -0.0000
     0.0000     0.0000     0.0000     0.0000     0.0000
    -0.0000    -0.0000     0.3289     0.0000    -0.0000
     0.0000     0.0000     0.0000     0.0000     0.0000
    -0.1531     0.0000     0.0000     0.2653    -0.0000
     0.0000     0.0000     0.0000     0.0000     0.0000
     0.0000    -0.0000    -0.0000    -0.0000     0.3289
     0.0000     0.0000     0.0000     0.0000     0.0000
 Hermiticity:              (0.67010305229101019,0.0000000000000000)
Hubbard U energy: Ha   =   -0.050750526316
Hubbard U forces Ha/A    1     7.747877115931    4.724315314592    4.724315314592    0.000000000001   -0.000000000000   -0.000000000000
Hubbard U forces Ha/A    2     4.724315314592    4.724315314592    4.724315314592   -0.000000000041    0.000000000000   -0.000000000000
  achieved Hubbard U energy convergence:   7.3498644949913272E-007

 *********************** Ewald forces ***********************
 *                                                          *
 *               Cartesian components (eV/A)                *
 * -------------------------------------------------------- *
 *                         x            y            z      *
 *                                                          *
 * O               1    483.91934      0.00000      0.00000 *
 * Mn              1   -483.91934     -0.00000     -0.00000 *
 *                                                          *
 ************************************************************

 ****************** Local potential forces ******************
 *                                                          *
 *               Cartesian components (eV/A)                *
 * -------------------------------------------------------- *
 *                         x            y            z      *
 *                                                          *
 * O               1   -453.49331     -0.00000     -0.00000 *
 * Mn              1    495.98750      0.00001      0.00000 *
 *                                                          *
 ************************************************************

 **************** Non-local potential forces ****************
 *                                                          *
 *               Cartesian components (eV/A)                *
 * -------------------------------------------------------- *
 *                         x            y            z      *
 *                                                          *
 * O               1    -30.39001      0.00000     -0.00000 *
 * Mn              1    -13.41730     -0.00000     -0.00000 *
 *                                                          *
 ************************************************************

 ************** External Efield and/or dipole ***************
 *                                                          *
 *               Cartesian components (eV/A)                *
 * -------------------------------------------------------- *
 *                         x            y            z      *
 *                                                          *
 * O               1      0.00000      0.00000      0.00000 *
 * Mn              1      0.00000      0.00000      0.00000 *
 *                                                          *
 ************************************************************

 ***************** DM correction to forces ******************
 *                                                          *
 *               Cartesian components (eV/A)                *
 * -------------------------------------------------------- *
 *                         x            y            z      *
 *                                                          *
 * O               1      0.00000      0.00000      0.00000 *
 * Mn              1      0.00000      0.00000      0.00000 *
 *                                                          *
 ************************************************************

 ***************** Hubbard potential forces *****************
 *                                                          *
 *               Cartesian components (eV/A)                *
 * -------------------------------------------------------- *
 *                         x            y            z      *
 *                                                          *
 * O               1      0.00000     -0.00000     -0.00000 *
 * Mn              1     -0.00000      0.00000     -0.00000 *
 *                                                          *
 ************************************************************

 ************************** Forces **************************
 *                                                          *
 *               Cartesian components (eV/A)                *
 * -------------------------------------------------------- *
 *                         x            y            z      *
 *                                                          *
 * O               1      0.69258     -0.00000     -0.00000 *
 * Mn              1     -0.69258      0.00000      0.00000 *
 *                                                          *
 ************************************************************

 Pseudo atomic calculation performed for O 2s2 2p4

 Converged in 24 iterations to a total energy of -431.0932 eV

 Pseudo atomic calculation performed for Mn 3s2 3p6 3d5 4s2

 Converged in 38 iterations to a total energy of -2902.3718 eV
Charge spilling parameter for spin component 1 = 0.18%
Charge spilling parameter for spin component 2 = 0.19%

                   Orbital Populations                  
  ---------------------------------------------------------------
     Ion    Atom   Orbital              Up        Down      Spin
  ---------------------------------------------------------------
      O     1      S                    0.963     0.959     0.004
      O     1      Px                   0.676     0.732    -0.056
      O     1      Py                   0.904     0.719     0.185
      O     1      Pz                   0.904     0.719     0.185
     Mn     1      S                    0.999     1.000    -0.001
     Mn     1      Px                   0.998     0.998     0.000
     Mn     1      Py                   1.000     1.000     0.000
     Mn     1      Pz                   1.000     1.000     0.000
     Mn     1      Dzz                  0.929     0.068     0.861
     Mn     1      Dzy                  1.000     0.000     1.000
     Mn     1      Dzx                  0.972     0.260     0.711
     Mn     1      Dxx-yy               0.787     0.203     0.584
     Mn     1      Dxy                  0.972     0.260     0.711
     Mn     1      S                    0.603     0.020     0.583
     Mn     1      Px                   0.037     0.022     0.014
     Mn     1      Py                   0.128     0.021     0.108
     Mn     1      Pz                   0.128     0.021     0.108
  ---------------------------------------------------------------
                           Total:      12.999     8.001     4.998
  ---------------------------------------------------------------
The total projected populations are: spin up   12.999  -0.000, spin down    8.001  -0.000, total   21.000  -0.000

     Atomic Populations (Mulliken)
     -----------------------------
Species          Ion Spin      s      p      d      f     Total  Charge(e)   Spin(hbar/2)
=========================================================================================
  O               1   up:     0.96   2.48   0.00   0.00   3.45    -0.58        0.32
                  1   dn:     0.96   2.17   0.00   0.00   3.13
  Mn              1   up:     1.60   3.29   4.66   0.00   9.55     0.58        4.68
                  1   dn:     1.02   3.06   0.79   0.00   4.87
=========================================================================================

                 Bond                   Population        Spin       Length (A)
================================================================================
               O 1 -- Mn 1                   0.64        -0.04          1.60000
================================================================================


Writing analysis data to MnO.castep_bin

Writing model to MnO.check
Initialisation time =     13.11 s
Calculation time    =     16.76 s
Finalisation time   =      0.13 s
Total time          =     30.00 s
Peak Memory Use     = 511716 kB
  
Overall parallel efficiency rating: Good (77%)                                  
  
Data was distributed by:-
k-point (2-way); efficiency rating: Good (78%)                                  
  
Parallel notes:
1) Calculation only took 29.9 s, so efficiency estimates may be inaccurate.     
2) k-points were not fully distributed, there were 5 k-points per process.      
  
Efficiencies are estimated from the ratio of communication time to total time,
and do not include all the effects of serial operations or load imbalance.
