 +-------------------------------------------------+
 |                                                 |
 |      CCC   AA    SSS  TTTTT  EEEEE  PPPP        |
 |     C     A  A  S       T    E      P   P       |
 |     C     AAAA   SS     T    EEE    PPPP        |
 |     C     A  A     S    T    E      P           |
 |      CCC  A  A  SSS     T    EEEEE  P           |
 |                                                 |
 +-------------------------------------------------+
 |                                                 |
 | Welcome to Academic Release CASTEP version 19.11|          
 | Ab Initio Total Energy Program                  |
 |                                                 |
 | Authors:                                        |
 | M. Segall, M. Probert, C. Pickard, P. Hasnip,   |
 | S. Clark, K. Refson, J. R. Yates, M. Payne      |
 |                                                 |
 | Contributors:                                   |
 | P. Lindan, P. Haynes, J. White, V. Milman,      |
 | N. Govind, M. Gibson, P. Tulip, V. Cocula,      |
 | B. Montanari, D. Quigley, M. Glover,            |
 | L. Bernasconi, A. Perlov, M. Plummer,           |
 | E. McNellis, J. Meyer, J. Gale, D. Jochym       |
 | J. Aarons, B. Walker, R. Gillen, D. Jones       |
 | T. Green, I. J. Bush, C. J. Armstrong,          |
 | E. J. Higgins, E. L. Brown, M. S. McFly,        |
 | J. Wilkins, B-C. Shih, P. J. P. Byrne           |
 |                                                 |
 | Copyright (c) 2000 - 2018                       |
 |                                                 |
 |     Distributed under the terms of an           |
 |     Agreement between the United Kingdom        |
 |     Car-Parrinello (UKCP) Consortium,           |
 |     Daresbury Laboratory and Accelrys, Inc.     |
 |                                                 |
 | Please cite                                     |
 |                                                 |
 |     "First principles methods using CASTEP"     |
 |                                                 |
 |         Zeitschrift fuer Kristallographie       |
 |           220(5-6) pp. 567-570 (2005)           |
 |                                                 |
 | S. J. Clark, M. D. Segall, C. J. Pickard,       |
 | P. J. Hasnip, M. J. Probert, K. Refson,         |
 | M. C. Payne                                     |
 |                                                 |
 |       in all publications arising from          |
 |              your use of CASTEP                 |
 |                                                 |
 +-------------------------------------------------+
 |                                                 |
 |              http://www.castep.org              |
 |                                                 |
 +-------------------------------------------------+



 Compiled for linux_x86_64_gfortran7.0 on Mon, 30 Mar 2020 12:17:21 +0100
 from code version e1fe0d666396+ Castep191_branch Thu, 24 Oct 2019 13:54:03 +0100
 Compiler: GNU Fortran 7.5.0; Optimisation: fast
 MATHLIBS: Intel MKL(2019.0.5) (LAPACK version 3.7.0)
 FFT Lib : mkl
 Fundamental constants values: CODATA 2014

 Run started: Wed, 04 Nov 2020 19:28:22 +0000

 ******************************* User Parameters *******************************
iprint              : 3         # verbosity control (I)
writebib            : F         # output BibTeX references (L)
writeotfg           : F         # output OTFG files (L)
writecstesp         : F         # output cst_esp file (L)
spin                : 5.0000000 # net spin (R)
spinpolarised       : T         # spin polarised (L)
%block develcode    :           # developers code (B)
iprintu=8,
%endblock develcode :           # developers code (B)

 *******************************************************************************
  

 Atomic calculation performed for O: 1s2 2s2 2p4

 Converged in 60 iterations to an ae energy of -2027.926 eV


 Atomic calculation performed for Mn: 1s2 2s2 2p6 3s2 3p6 3d5 4s2

 Converged in 96 iterations to an ae energy of -31460.102 eV


 Pseudo atomic calculation performed for O 2s2 2p4

 Converged in 24 iterations to a total energy of -431.0932 eV

 Pseudo atomic calculation performed for Mn 3s2 3p6 3d5 4s2

 Converged in 38 iterations to a total energy of -2902.3718 eV
Initialising basis set.

Standard grid dimensions:  48  36  36
Fine grid dimensions:      48  36  36

Plane wave load balancing: max   5869 min   5847 average   5864
True cut-off energy of basis :  22.996
 Calculation parallelised over 2 processes.
 Data is distributed by k-point(2-way)

 ************************************ Title ************************************
 

 ***************************** General Parameters ******************************
  
 output verbosity                               : extreme (3)
 write checkpoint data to                       : MnO.check
 type of calculation                            : single point energy
 stress calculation                             : off
 density difference calculation                 : off
 electron localisation func (ELF) calculation   : off
 Hirshfeld analysis                             : off
 unlimited duration calculation
 timing information                             : on
 memory usage estimate                          : on
 write extra output files                       : on
 write final potential to formatted file        : off
 write final density to formatted file          : off
 write BibTeX reference list                    : off
 write OTFG pseudopotential files               : off
 write electrostatic potential file             : off
 write bands file                               : on
 checkpoint writing                             : both castep_bin and check files
  
 output         length unit                     : A
 output           mass unit                     : amu
 output           time unit                     : ps
 output         charge unit                     : e
 output           spin unit                     : hbar/2
 output         energy unit                     : eV
 output          force unit                     : eV/A
 output       velocity unit                     : A/ps
 output       pressure unit                     : GPa
 output     inv_length unit                     : 1/A
 output      frequency unit                     : cm-1
 output force constant unit                     : eV/A**2
 output         volume unit                     : A**3
 output   IR intensity unit                     : (D/A)**2/amu
 output         dipole unit                     : D
 output         efield unit                     : eV/A/e
 output        entropy unit                     : J/mol/K
  
 wavefunctions paging                           : none
 random number generator seed                   : randomised (192822383)
 data distribution                              : optimal for this architecture
 optimization strategy                          : balance speed and memory

 *********************** Exchange-Correlation Parameters ***********************
  
 using functional                               : Local Density Approximation
 relativistic treatment                         : Koelling-Harmon
 DFT+D: Semi-empirical dispersion correction    : off

 ************************* Pseudopotential Parameters **************************
  
 pseudopotential representation                 : reciprocal space
 <beta|phi> representation                      : reciprocal space
 spin-orbit coupling                            : off

 **************************** Basis Set Parameters *****************************
  
 basis set accuracy                             : FINE
 plane wave basis set cut-off                   :   625.8619   eV
 size of standard grid                          :     1.7500
 size of   fine   gmax                          :    22.4293   1/A
 largest prime factor in FFT                    :          5
 finite basis set correction                    : none

 **************************** Electronic Parameters ****************************
  
 number of  electrons                           :  21.00    
 net charge of system                           :  0.000    
 net spin   of system                           :  5.000    
 number of  up  spins                           :  13.00    
 number of down spins                           :  8.000    
 treating system as spin-polarized
 number of bands                                :         17

 ********************* Electronic Minimization Parameters **********************
  
 Method: Treating system as metallic with density mixing treatment of electrons,
         and number of  SD  steps               :          1
         and number of  CG  steps               :          4
  
 total energy / atom convergence tol.           : 0.1000E-04   eV
 eigen-energy convergence tolerance             : 0.1000E-05   eV
 max force / atom convergence tol.              : ignored
 convergence tolerance window                   :          3   cycles
 max. number of SCF cycles                      :         30
 number of fixed-spin iterations                :         10
 smearing scheme                                : Gaussian
 smearing width                                 : 0.2000       eV
 Fermi energy convergence tolerance             : 0.2721E-13   eV
 periodic dipole correction                     : NONE

 ************************** Density Mixing Parameters **************************
  
 density-mixing scheme                          : Broyden
 max. length of mixing history                  :         20
 charge density mixing amplitude                : 0.8000    
   spin density mixing amplitude                :  2.000    
 charge density mixing g-vector                 :  1.500       1/A
   spin density mixing g-vector                 :  1.500       1/A

 *********************** Population Analysis Parameters ************************
  
 Population analysis with cutoff                :  3.000       A
 Population analysis output                     : summary and pdos components

 ******************************* Developer Code ********************************
  
 iprintu=8,

 *******************************************************************************
  

                           -------------------------------
                                      Unit Cell
                           -------------------------------
        Real Lattice(A)                      Reciprocal Lattice(1/A)
     6.6000000     0.0000000     0.0000000        0.951997774   0.000000000   0.000000000
     0.0000000     5.0000000     0.0000000        0.000000000   1.256637061   0.000000000
     0.0000000     0.0000000     5.0000000        0.000000000   0.000000000   1.256637061

                       Lattice parameters(A)       Cell Angles
                    a =      6.600000          alpha =   90.000000
                    b =      5.000000          beta  =   90.000000
                    c =      5.000000          gamma =   90.000000

                       Current cell volume =           165.000000       A**3
                                   density =             0.429924   AMU/A**3
                                           =             0.713905     g/cm^3

                           -------------------------------
                                     Cell Contents
                           -------------------------------
                         Total number of ions in cell =    2
                      Total number of species in cell =    2
                        Max number of any one species =    1

            xxxxxxxxxxxxxxxxxxxxxxxxxxxxxxxxxxxxxxxxxxxxxxxxxxxxxxxxxxxx
            x  Element    Atom        Fractional coordinates of atoms  x
            x            Number           u          v          w      x
            x----------------------------------------------------------x
            x  O            1         0.621212   0.500000   0.500000   x 
            x  Mn           1         0.378788   0.500000   0.500000   x 
            xxxxxxxxxxxxxxxxxxxxxxxxxxxxxxxxxxxxxxxxxxxxxxxxxxxxxxxxxxxx


                         No user defined ionic velocities

                           -------------------------------
                                   Details of Species
                           -------------------------------

                               Mass of species in AMU
                                    O   15.9994000
                                    Mn   54.9380500

                          Electric Quadrupole Moment (Barn)
                                    O   -0.0255800 Isotope 17
                                    Mn    0.3300000 Isotope 55


         Quantisation axis:    0.00000   0.00000   1.00000

         Units for Hubbard U values are eV
         xxxxxxxxxxxxxxxxxxxxxxxxxxxxxxxxxxxxxxxxxxxxxxxxxxxxxxxxxxxxxxxxxxxx
         |  Element     Atom     Hubbard U   values by orbital type         |
         |             Number      s          p          d          f       |
         |------------------------------------------------------------------|
         |O             1         0.00000    0.00000    0.00000    0.00000  |
         |Mn            1         0.00000    0.00000    0.00000    0.00000  |
         xxxxxxxxxxxxxxxxxxxxxxxxxxxxxxxxxxxxxxxxxxxxxxxxxxxxxxxxxxxxxxxxxxxx


                          Files used for pseudopotentials:
                                    O 2|1.1|17|20|23|20:21(qc=8)
                                    Mn 3|1.8|1.8|0.6|12|14|16|30U:40:31:32(qc=7)

                           -------------------------------
                              k-Points For BZ Sampling
                           -------------------------------
                       MP grid size for SCF calculation is  2  3  3
                            with an offset of   0.000  0.000  0.000
                       Number of kpoints used =             9

             +++++++++++++++++++++++++++++++++++++++++++++++++++++++
             +  Number       Fractional coordinates        Weight  +
             +-----------------------------------------------------+
             +     1  -0.250000  -0.333333  -0.333333   0.1111111  +
             +     2  -0.250000  -0.333333   0.333333   0.1111111  +
             +     3  -0.250000   0.000000  -0.333333   0.1111111  +
             +     4  -0.250000   0.000000   0.000000   0.1111111  +
             +     5  -0.250000   0.000000   0.333333   0.1111111  +
             +     6  -0.250000   0.333333   0.000000   0.1111111  +
             +     7  -0.250000   0.333333   0.333333   0.1111111  +
             +     8   0.250000  -0.333333   0.333333   0.1111111  +
             +     9   0.250000   0.333333   0.000000   0.1111111  +
             +++++++++++++++++++++++++++++++++++++++++++++++++++++++

                           -------------------------------
                               Symmetry and Constraints
                           -------------------------------

                      Maximum deviation from symmetry =  0.00000         ANG

                      Number of symmetry operations   =           1
                      Number of ionic constraints     =           3
                      Point group of crystal =     1: C1, 1, 1
                      Space group of crystal =    99: P4mm, P 4 -2

                    1 rotation    
                 (   1.00000000000   0.00000000000   0.00000000000 )
                 (   0.00000000000   1.00000000000   0.00000000000 )
                 (   0.00000000000   0.00000000000   1.00000000000 )
                    1 displacement
                 (   0.00000000000   0.00000000000   0.00000000000 )
                      symmetry related atoms: 
             O:    1
             Mn:    1


                         Centre of mass is constrained

            xxxxxxxxxxxxxxxxxxxxxxxxxxxxxxxxxxxxxxxxxxxxxxxxxxxxxxxxxxxxxx....
            x  Species       atom   co-ordinate  constraints.....         
            x-------------------------------------------------------------....
            x O                 1       x        29165.1220      0.0000      0.0000
            x O                 1       y            0.0000  29165.1220      0.0000
            x O                 1       z            0.0000      0.0000  29165.1220
            x Mn                1       x       100145.9388      0.0000      0.0000
            x Mn                1       y            0.0000 100145.9388      0.0000
            x Mn                1       z            0.0000      0.0000 100145.9388
            xxxxxxxxxxxxxxxxxxxxxxxxxxxxxxxxxxxxxxxxxxxxxxxxxxxxxxxxxxxxxx....

                         Number of cell constraints= 0
                         Cell constraints are:  1 2 3 4 5 6

                         External pressure/stress (GPa)
                          0.00000   0.00000   0.00000
                                    0.00000   0.00000
                                              0.00000
Density mixing plane wave load balancing: max      0 min      0 average      0
  
+---------------- MEMORY AND SCRATCH DISK ESTIMATES PER PROCESS --------------+
|                                                     Memory          Disk    |
| Baseline code, static data and system overhead      354.0 MB         0.0 MB |
| BLAS internal memory storage                          0.0 MB         0.0 MB |
| Model and support data                               67.2 MB       110.4 MB |
| Electronic energy minimisation requirements          51.6 MB         0.0 MB |
| Force calculation requirements                       13.8 MB         0.0 MB |
|                                               ----------------------------- |
| Approx. total storage required per process          472.8 MB       110.4 MB |
|                                                                             |
| Requirements will fluctuate during execution and may exceed these estimates |
+-----------------------------------------------------------------------------+
Calculating total energy with cut-off of  625.862 eV.
electronic_minimisation: Initialising

 Pseudo atomic calculation performed for O 2s2 2p4

 Converged in 24 iterations to a total energy of -431.0932 eV

 Pseudo atomic calculation performed for Mn 3s2 3p6 3d5 4s2

 Converged in 38 iterations to a total energy of -2902.3718 eV
  Initializing Hubbard U occ matrix: 

     Hubbard U occupation numbers
     ----------------------------
Species   Ion   l  spin               occupancies
==================================================================
  Mn       1    2   up:   0.00  0.00  1.00  1.00  1.00
                    dn:   0.00  0.00  1.00  1.00  1.00
==================================================================

electronic_minimisation: Initialising density mixing
 Initialising mixing density basis set.
Density mixing plane wave load balancing: max   5871 min   5871 average   5871
Calculating Ewald energy for ionic configuration
              Ewald: real-space energy =     359.826811 eV
        Ewald: reciprocal-space energy =      93.920754 eV
         Ewald: (sum_charge)**2 Energy =     459.468501 eV
         Ewald: (sum_charge**2) Energy =     769.135141 eV
                          Ewald Energy =    -774.856077 eV
Calculating non-Coulombic energy for ionic configuration
Symmetrising density
Calculating local potential
Calculating Hubbard U potential
 Density matrix in cubic harmonics:
     1.0000     0.0000     0.0000     0.0000     0.0000
     0.0000     0.0000     0.0000     0.0000     0.0000
     0.0000     0.0000     0.0000     0.0000     0.0000
     0.0000     0.0000     0.0000     0.0000     0.0000
     0.0000     0.0000     0.0000     0.0000     0.0000
     0.0000     0.0000     0.0000     0.0000     0.0000
     0.0000     0.0000     0.0000     1.0000     0.0000
     0.0000     0.0000     0.0000     0.0000     0.0000
     0.0000     0.0000     0.0000     0.0000     1.0000
     0.0000     0.0000     0.0000     0.0000     0.0000
 Hermiticity:        (-4.44089209850062616E-016,0.0000000000000000)
 Density matrix in cubic harmonics:
     1.0000     0.0000     0.0000     0.0000     0.0000
     0.0000     0.0000     0.0000     0.0000     0.0000
     0.0000     0.0000     0.0000     0.0000     0.0000
     0.0000     0.0000     0.0000     0.0000     0.0000
     0.0000     0.0000     0.0000     0.0000     0.0000
     0.0000     0.0000     0.0000     0.0000     0.0000
     0.0000     0.0000     0.0000     1.0000     0.0000
     0.0000     0.0000     0.0000     0.0000     0.0000
     0.0000     0.0000     0.0000     0.0000     1.0000
     0.0000     0.0000     0.0000     0.0000     0.0000
 Hermiticity:        (-4.44089209850062616E-016,0.0000000000000000)
Calculating non-local weights
Calculating KE and non-local eigenvalues to find total energy
 
Init
Exchange-correlation energy      =      -492.05530129033917319 eV
+Hartree energy                  =      2002.85218583077744370 eV
+Local pseudopotential energy    =     -5006.08277686182645994 eV
----------------------------------
Potential energy (total)         =     -3495.28589232137574072 eV
                                  
+Hubbard U energy                =        -0.00000000000000000 eV
+Kinetic energy                  =      1135.46502993905369294 eV
+Non-local energy                =        -1.92549960673538911 eV
+Electronic entropy term (-TS)   =         0.00000000000000000 eV
+Ewald energy (const)            =      -774.85607651874397561 eV
+non-Coulombic energy (const)    =        13.80612138473854067 eV
----------------------------------
Total free energy (E-TS)         =     -3122.79631712306218105 eV
 
NB est. 0K energy (E-0.5TS)      =     -3122.79631712306218105 eV
 
(XC correction to eigenvalue sum =        41.73590657413178207 eV)
(Hubbard U correction to eigenvalu         0.00000003000000000 eV)
 
------------------------------------------------------------------------ <-- SCF
SCF loop      Energy           Fermi           Energy gain       Timer   <-- SCF
                               energy          per atom          (sec)   <-- SCF
------------------------------------------------------------------------ <-- SCF
Initial  -3.12279632E+003  0.00000000E+000                         8.05  <-- SCF
Starting SCF cycle     1 of up to    30
 no. bands in each block=           8
Kinetic eigenvalue #   1 =     0.54400292E+02
Kinetic eigenvalue #   2 =     0.54202734E+02
Kinetic eigenvalue #   3 =     0.54697995E+02
Kinetic eigenvalue #   4 =     0.53885591E+02
Kinetic eigenvalue #   5 =     0.53551822E+02
Kinetic eigenvalue #   6 =     0.54980904E+02
Kinetic eigenvalue #   7 =     0.53820934E+02
Kinetic eigenvalue #   8 =     0.54811280E+02
Kinetic eigenvalue #   9 =     0.56249052E+02
Kinetic eigenvalue #  10 =     0.53058940E+02
Kinetic eigenvalue #  11 =     0.54827669E+02
Kinetic eigenvalue #  12 =     0.55610976E+02
Kinetic eigenvalue #  13 =     0.54729022E+02
Kinetic eigenvalue #  14 =     0.52651661E+02
Kinetic eigenvalue #  15 =     0.54512700E+02
Kinetic eigenvalue #  16 =     0.54237387E+02
Kinetic eigenvalue #  17 =     0.55461279E+02
 Calculating the R matrix for the precon Sinv operator
 Diagonalising expanded subspace
 Copying updated data back
eigenvalue    1 init=  39.86     fin= -41.80     change=  81.66    
eigenvalue    2 init=  41.81     fin= -2.546     change=  44.36    
eigenvalue    3 init=  42.63     fin= 0.7982E-01 change=  42.55    
eigenvalue    4 init=  44.12     fin=  6.972     change=  37.15    
eigenvalue    5 init=  45.02     fin=  11.79     change=  33.22    
eigenvalue    6 init=  46.40     fin=  15.82     change=  30.58    
eigenvalue    7 init=  48.11     fin=  17.25     change=  30.86    
eigenvalue    8 init=  48.72     fin=  19.18     change=  29.53    
 Checking convergence criteria
 Diagonalising expanded subspace
 Copying updated data back
eigenvalue    1 init=  39.86     fin= -79.77     change=  119.6    
eigenvalue    2 init=  41.81     fin= -43.34     change=  85.15    
eigenvalue    3 init=  42.63     fin= -42.65     change=  85.28    
eigenvalue    4 init=  44.12     fin= -27.14     change=  71.26    
eigenvalue    5 init=  45.02     fin= -7.776     change=  52.79    
eigenvalue    6 init=  46.40     fin=  4.274     change=  42.13    
eigenvalue    7 init=  48.11     fin=  5.231     change=  42.88    
eigenvalue    8 init=  48.72     fin=  7.515     change=  41.20    
 Checking convergence criteria
 Diagonalising expanded subspace
 Copying updated data back
eigenvalue    1 init=  39.86     fin= -83.25     change=  123.1    
eigenvalue    2 init=  41.81     fin= -53.03     change=  94.84    
eigenvalue    3 init=  42.63     fin= -51.86     change=  94.49    
eigenvalue    4 init=  44.12     fin= -48.89     change=  93.01    
eigenvalue    5 init=  45.02     fin= -22.08     change=  67.10    
eigenvalue    6 init=  46.40     fin= -2.712     change=  49.11    
eigenvalue    7 init=  48.11     fin= -1.551     change=  49.66    
eigenvalue    8 init=  48.72     fin= 0.5626     change=  48.15    
 Checking convergence criteria
 Diagonalising expanded subspace
 Copying updated data back
eigenvalue    1 init=  39.86     fin= -83.31     change=  123.2    
eigenvalue    2 init=  41.81     fin= -53.38     change=  95.19    
eigenvalue    3 init=  42.63     fin= -52.70     change=  95.33    
eigenvalue    4 init=  44.12     fin= -51.35     change=  95.47    
eigenvalue    5 init=  45.02     fin= -24.57     change=  69.59    
eigenvalue    6 init=  46.40     fin= -4.248     change=  50.65    
eigenvalue    7 init=  48.11     fin= -1.817     change=  49.92    
eigenvalue    8 init=  48.72     fin= 0.9026E-01 change=  48.63    
 Checking convergence criteria
 Diagonalising expanded subspace
 Copying updated data back
eigenvalue    9 init=  49.85     fin=  15.29     change=  34.56    
eigenvalue   10 init=  50.81     fin=  17.27     change=  33.54    
eigenvalue   11 init=  52.03     fin=  18.26     change=  33.76    
eigenvalue   12 init=  52.87     fin=  19.46     change=  33.41    
eigenvalue   13 init=  54.57     fin=  21.13     change=  33.44    
eigenvalue   14 init=  55.53     fin=  23.40     change=  32.13    
eigenvalue   15 init=  57.22     fin=  24.46     change=  32.76    
eigenvalue   16 init=  58.18     fin=  26.81     change=  31.36    
 Checking convergence criteria
 Diagonalising expanded subspace
 Copying updated data back
eigenvalue    9 init=  49.85     fin= 0.9009     change=  48.95    
eigenvalue   10 init=  50.81     fin=  4.578     change=  46.23    
eigenvalue   11 init=  52.03     fin=  5.906     change=  46.12    
eigenvalue   12 init=  52.87     fin=  7.713     change=  45.15    
eigenvalue   13 init=  54.57     fin=  9.649     change=  44.92    
eigenvalue   14 init=  55.53     fin=  12.47     change=  43.06    
eigenvalue   15 init=  57.22     fin=  13.21     change=  44.01    
eigenvalue   16 init=  58.18     fin=  16.38     change=  41.80    
 Checking convergence criteria
 Diagonalising expanded subspace
 Copying updated data back
eigenvalue    9 init=  49.85     fin= -5.912     change=  55.77    
eigenvalue   10 init=  50.81     fin= -2.265     change=  53.08    
eigenvalue   11 init=  52.03     fin= 0.8604     change=  51.17    
eigenvalue   12 init=  52.87     fin=  1.406     change=  51.46    
eigenvalue   13 init=  54.57     fin=  4.508     change=  50.06    
eigenvalue   14 init=  55.53     fin=  6.094     change=  49.44    
eigenvalue   15 init=  57.22     fin=  8.883     change=  48.34    
eigenvalue   16 init=  58.18     fin=  12.39     change=  45.78    
 Checking convergence criteria
 Diagonalising expanded subspace
 Copying updated data back
eigenvalue   17 init=  59.53     fin=  25.76     change=  33.77    
 Checking convergence criteria
 Diagonalising expanded subspace
 Copying updated data back
eigenvalue   17 init=  59.53     fin=  11.97     change=  47.56    
 Checking convergence criteria
 Diagonalising expanded subspace
 Copying updated data back
eigenvalue   17 init=  59.53     fin=  7.563     change=  51.97    
 Checking convergence criteria
 no. bands in each block=           8
Kinetic eigenvalue #   1 =     0.54099025E+02
Kinetic eigenvalue #   2 =     0.53064955E+02
Kinetic eigenvalue #   3 =     0.54883327E+02
Kinetic eigenvalue #   4 =     0.54560966E+02
Kinetic eigenvalue #   5 =     0.52489745E+02
Kinetic eigenvalue #   6 =     0.51516427E+02
Kinetic eigenvalue #   7 =     0.52962732E+02
Kinetic eigenvalue #   8 =     0.54385855E+02
Kinetic eigenvalue #   9 =     0.52280129E+02
Kinetic eigenvalue #  10 =     0.54090548E+02
Kinetic eigenvalue #  11 =     0.55717330E+02
Kinetic eigenvalue #  12 =     0.53240259E+02
Kinetic eigenvalue #  13 =     0.52454239E+02
Kinetic eigenvalue #  14 =     0.55287741E+02
Kinetic eigenvalue #  15 =     0.53649920E+02
Kinetic eigenvalue #  16 =     0.53073969E+02
Kinetic eigenvalue #  17 =     0.53238150E+02
 Calculating the R matrix for the precon Sinv operator
 Diagonalising expanded subspace
 Copying updated data back
eigenvalue    1 init=  38.97     fin= -31.50     change=  70.47    
eigenvalue    2 init=  40.35     fin= -7.798     change=  48.15    
eigenvalue    3 init=  41.31     fin= -5.895     change=  47.20    
eigenvalue    4 init=  42.85     fin=  4.525     change=  38.33    
eigenvalue    5 init=  44.68     fin=  12.56     change=  32.11    
eigenvalue    6 init=  45.60     fin=  13.44     change=  32.17    
eigenvalue    7 init=  47.25     fin=  17.39     change=  29.86    
eigenvalue    8 init=  48.17     fin=  18.11     change=  30.06    
 Checking convergence criteria
 Diagonalising expanded subspace
 Copying updated data back
eigenvalue    1 init=  38.97     fin= -79.42     change=  118.4    
eigenvalue    2 init=  40.35     fin= -46.21     change=  86.57    
eigenvalue    3 init=  41.31     fin= -43.61     change=  84.92    
eigenvalue    4 init=  42.85     fin= -36.33     change=  79.18    
eigenvalue    5 init=  44.68     fin= -10.86     change=  55.53    
eigenvalue    6 init=  45.60     fin=  1.326     change=  44.28    
eigenvalue    7 init=  47.25     fin=  3.804     change=  43.45    
eigenvalue    8 init=  48.17     fin=  7.461     change=  40.71    
 Checking convergence criteria
 Diagonalising expanded subspace
 Copying updated data back
eigenvalue    1 init=  38.97     fin= -83.14     change=  122.1    
eigenvalue    2 init=  40.35     fin= -53.45     change=  93.81    
eigenvalue    3 init=  41.31     fin= -52.32     change=  93.62    
eigenvalue    4 init=  42.85     fin= -51.91     change=  94.77    
eigenvalue    5 init=  44.68     fin= -21.88     change=  66.55    
eigenvalue    6 init=  45.60     fin= -5.306     change=  50.91    
eigenvalue    7 init=  47.25     fin= -2.967     change=  50.22    
eigenvalue    8 init=  48.17     fin=  1.702     change=  46.47    
 Checking convergence criteria
 Diagonalising expanded subspace
 Copying updated data back
eigenvalue    1 init=  38.97     fin= -83.15     change=  122.1    
eigenvalue    2 init=  40.35     fin= -53.54     change=  93.89    
eigenvalue    3 init=  41.31     fin= -53.34     change=  94.65    
eigenvalue    4 init=  42.85     fin= -52.29     change=  95.14    
eigenvalue    5 init=  44.68     fin= -24.04     change=  68.71    
eigenvalue    6 init=  45.60     fin= -5.905     change=  51.51    
eigenvalue    7 init=  47.25     fin= -3.248     change=  50.50    
eigenvalue    8 init=  48.17     fin= 0.6680     change=  47.50    
 Checking convergence criteria
 Diagonalising expanded subspace
 Copying updated data back
eigenvalue    9 init=  49.62     fin=  14.82     change=  34.80    
eigenvalue   10 init=  50.33     fin=  16.68     change=  33.65    
eigenvalue   11 init=  51.67     fin=  17.85     change=  33.82    
eigenvalue   12 init=  52.46     fin=  20.16     change=  32.30    
eigenvalue   13 init=  52.97     fin=  20.77     change=  32.20    
eigenvalue   14 init=  54.10     fin=  22.72     change=  31.39    
eigenvalue   15 init=  56.32     fin=  23.58     change=  32.74    
eigenvalue   16 init=  57.09     fin=  25.97     change=  31.12    
 Checking convergence criteria
 Diagonalising expanded subspace
 Copying updated data back
eigenvalue    9 init=  49.62     fin=  1.795     change=  47.82    
eigenvalue   10 init=  50.33     fin=  4.249     change=  46.08    
eigenvalue   11 init=  51.67     fin=  5.644     change=  46.02    
eigenvalue   12 init=  52.46     fin=  7.484     change=  44.98    
eigenvalue   13 init=  52.97     fin=  8.815     change=  44.16    
eigenvalue   14 init=  54.10     fin=  9.546     change=  44.56    
eigenvalue   15 init=  56.32     fin=  11.40     change=  44.92    
eigenvalue   16 init=  57.09     fin=  14.36     change=  42.73    
 Checking convergence criteria
 Diagonalising expanded subspace
 Copying updated data back
eigenvalue    9 init=  49.62     fin= -4.603     change=  54.22    
eigenvalue   10 init=  50.33     fin= -2.732     change=  53.06    
eigenvalue   11 init=  51.67     fin= 0.3620     change=  51.31    
eigenvalue   12 init=  52.46     fin=  1.701     change=  50.76    
eigenvalue   13 init=  52.97     fin=  4.150     change=  48.82    
eigenvalue   14 init=  54.10     fin=  4.793     change=  49.31    
eigenvalue   15 init=  56.32     fin=  5.963     change=  50.36    
eigenvalue   16 init=  57.09     fin=  9.241     change=  47.85    
 Checking convergence criteria
 Diagonalising expanded subspace
 Copying updated data back
eigenvalue   17 init=  60.06     fin=  25.18     change=  34.88    
 Checking convergence criteria
 Diagonalising expanded subspace
 Copying updated data back
eigenvalue   17 init=  60.06     fin=  12.50     change=  47.56    
 Checking convergence criteria
 Diagonalising expanded subspace
 Copying updated data back
eigenvalue   17 init=  60.06     fin=  6.963     change=  53.10    
 Checking convergence criteria
 no. bands in each block=           8
Kinetic eigenvalue #   1 =     0.54720102E+02
Kinetic eigenvalue #   2 =     0.54372558E+02
Kinetic eigenvalue #   3 =     0.52012330E+02
Kinetic eigenvalue #   4 =     0.54943896E+02
Kinetic eigenvalue #   5 =     0.54142829E+02
Kinetic eigenvalue #   6 =     0.53486579E+02
Kinetic eigenvalue #   7 =     0.53057544E+02
Kinetic eigenvalue #   8 =     0.53489547E+02
Kinetic eigenvalue #   9 =     0.54714359E+02
Kinetic eigenvalue #  10 =     0.53076139E+02
Kinetic eigenvalue #  11 =     0.54515906E+02
Kinetic eigenvalue #  12 =     0.53310595E+02
Kinetic eigenvalue #  13 =     0.51879008E+02
Kinetic eigenvalue #  14 =     0.54125706E+02
Kinetic eigenvalue #  15 =     0.55202769E+02
Kinetic eigenvalue #  16 =     0.53473628E+02
Kinetic eigenvalue #  17 =     0.54154259E+02
 Calculating the R matrix for the precon Sinv operator
 Diagonalising expanded subspace
 Copying updated data back
eigenvalue    1 init=  39.08     fin= -40.76     change=  79.84    
eigenvalue    2 init=  40.54     fin= -7.529     change=  48.07    
eigenvalue    3 init=  42.48     fin= -.4407     change=  42.92    
eigenvalue    4 init=  44.93     fin=  7.904     change=  37.02    
eigenvalue    5 init=  45.55     fin=  10.60     change=  34.94    
eigenvalue    6 init=  46.54     fin=  13.21     change=  33.33    
eigenvalue    7 init=  47.51     fin=  15.98     change=  31.52    
eigenvalue    8 init=  47.66     fin=  19.57     change=  28.09    
 Checking convergence criteria
 Diagonalising expanded subspace
 Copying updated data back
eigenvalue    1 init=  39.08     fin= -80.05     change=  119.1    
eigenvalue    2 init=  40.54     fin= -46.08     change=  86.62    
eigenvalue    3 init=  42.48     fin= -41.28     change=  83.76    
eigenvalue    4 init=  44.93     fin= -27.12     change=  72.05    
eigenvalue    5 init=  45.55     fin= -14.27     change=  59.82    
eigenvalue    6 init=  46.54     fin=  3.245     change=  43.29    
eigenvalue    7 init=  47.51     fin=  3.950     change=  43.56    
eigenvalue    8 init=  47.66     fin=  7.739     change=  39.92    
 Checking convergence criteria
 Diagonalising expanded subspace
 Copying updated data back
eigenvalue    1 init=  39.08     fin= -83.74     change=  122.8    
eigenvalue    2 init=  40.54     fin= -53.08     change=  93.62    
eigenvalue    3 init=  42.48     fin= -51.92     change=  94.39    
eigenvalue    4 init=  44.93     fin= -49.59     change=  94.52    
eigenvalue    5 init=  45.55     fin= -23.07     change=  68.61    
eigenvalue    6 init=  46.54     fin= -2.147     change=  48.69    
eigenvalue    7 init=  47.51     fin=  1.434     change=  46.07    
eigenvalue    8 init=  47.66     fin=  2.839     change=  44.82    
 Checking convergence criteria
 Diagonalising expanded subspace
 Copying updated data back
eigenvalue    1 init=  39.08     fin= -83.84     change=  122.9    
eigenvalue    2 init=  40.54     fin= -53.17     change=  93.71    
eigenvalue    3 init=  42.48     fin= -52.58     change=  95.06    
eigenvalue    4 init=  44.93     fin= -51.70     change=  96.63    
eigenvalue    5 init=  45.55     fin= -23.12     change=  68.67    
eigenvalue    6 init=  46.54     fin= -2.478     change=  49.02    
eigenvalue    7 init=  47.51     fin=  1.008     change=  46.50    
eigenvalue    8 init=  47.66     fin=  2.412     change=  45.25    
 Checking convergence criteria
 Diagonalising expanded subspace
 Copying updated data back
eigenvalue    9 init=  48.48     fin=  14.56     change=  33.93    
eigenvalue   10 init=  50.00     fin=  16.43     change=  33.57    
eigenvalue   11 init=  50.82     fin=  18.11     change=  32.71    
eigenvalue   12 init=  52.25     fin=  19.00     change=  33.26    
eigenvalue   13 init=  53.48     fin=  21.42     change=  32.06    
eigenvalue   14 init=  54.59     fin=  23.31     change=  31.28    
eigenvalue   15 init=  56.15     fin=  24.65     change=  31.50    
eigenvalue   16 init=  57.18     fin=  27.63     change=  29.54    
 Checking convergence criteria
 Diagonalising expanded subspace
 Copying updated data back
eigenvalue    9 init=  48.48     fin=  1.399     change=  47.08    
eigenvalue   10 init=  50.00     fin=  4.365     change=  45.64    
eigenvalue   11 init=  50.82     fin=  5.299     change=  45.52    
eigenvalue   12 init=  52.25     fin=  6.342     change=  45.91    
eigenvalue   13 init=  53.48     fin=  8.818     change=  44.66    
eigenvalue   14 init=  54.59     fin=  11.11     change=  43.48    
eigenvalue   15 init=  56.15     fin=  14.05     change=  42.10    
eigenvalue   16 init=  57.18     fin=  16.74     change=  40.43    
 Checking convergence criteria
 Diagonalising expanded subspace
 Copying updated data back
eigenvalue    9 init=  48.48     fin= -5.764     change=  54.25    
eigenvalue   10 init=  50.00     fin= -2.141     change=  52.14    
eigenvalue   11 init=  50.82     fin= -.5610     change=  51.38    
eigenvalue   12 init=  52.25     fin= 0.2596     change=  51.99    
eigenvalue   13 init=  53.48     fin=  3.868     change=  49.61    
eigenvalue   14 init=  54.59     fin=  6.501     change=  48.09    
eigenvalue   15 init=  56.15     fin=  9.080     change=  47.07    
eigenvalue   16 init=  57.18     fin=  11.36     change=  45.81    
 Checking convergence criteria
 Diagonalising expanded subspace
 Copying updated data back
eigenvalue   17 init=  58.41     fin=  24.26     change=  34.16    
 Checking convergence criteria
 Diagonalising expanded subspace
 Copying updated data back
eigenvalue   17 init=  58.41     fin=  9.390     change=  49.02    
 Checking convergence criteria
 Diagonalising expanded subspace
 Copying updated data back
eigenvalue   17 init=  58.41     fin=  3.622     change=  54.79    
 Checking convergence criteria
 no. bands in each block=           8
Kinetic eigenvalue #   1 =     0.55854680E+02
Kinetic eigenvalue #   2 =     0.55837309E+02
Kinetic eigenvalue #   3 =     0.53748097E+02
Kinetic eigenvalue #   4 =     0.53380106E+02
Kinetic eigenvalue #   5 =     0.54060428E+02
Kinetic eigenvalue #   6 =     0.53881363E+02
Kinetic eigenvalue #   7 =     0.54920758E+02
Kinetic eigenvalue #   8 =     0.53636988E+02
Kinetic eigenvalue #   9 =     0.53736079E+02
Kinetic eigenvalue #  10 =     0.53408514E+02
Kinetic eigenvalue #  11 =     0.53158916E+02
Kinetic eigenvalue #  12 =     0.54664156E+02
Kinetic eigenvalue #  13 =     0.54387238E+02
Kinetic eigenvalue #  14 =     0.53278073E+02
Kinetic eigenvalue #  15 =     0.53638175E+02
Kinetic eigenvalue #  16 =     0.55301685E+02
Kinetic eigenvalue #  17 =     0.53764954E+02
 Calculating the R matrix for the precon Sinv operator
 Diagonalising expanded subspace
 Copying updated data back
eigenvalue    1 init=  37.32     fin= -42.45     change=  79.77    
eigenvalue    2 init=  40.61     fin= -13.15     change=  53.77    
eigenvalue    3 init=  43.18     fin= -.1231     change=  43.30    
eigenvalue    4 init=  44.02     fin=  6.311     change=  37.71    
eigenvalue    5 init=  46.32     fin=  11.40     change=  34.92    
eigenvalue    6 init=  46.70     fin=  12.46     change=  34.23    
eigenvalue    7 init=  48.34     fin=  14.75     change=  33.59    
eigenvalue    8 init=  49.19     fin=  17.65     change=  31.53    
 Checking convergence criteria
 Diagonalising expanded subspace
 Copying updated data back
eigenvalue    1 init=  37.32     fin= -81.24     change=  118.6    
eigenvalue    2 init=  40.61     fin= -47.24     change=  87.85    
eigenvalue    3 init=  43.18     fin= -42.21     change=  85.39    
eigenvalue    4 init=  44.02     fin= -30.59     change=  74.61    
eigenvalue    5 init=  46.32     fin= -13.33     change=  59.65    
eigenvalue    6 init=  46.70     fin=  1.813     change=  44.88    
eigenvalue    7 init=  48.34     fin=  4.221     change=  44.12    
eigenvalue    8 init=  49.19     fin=  8.977     change=  40.21    
 Checking convergence criteria
 Diagonalising expanded subspace
 Copying updated data back
eigenvalue    1 init=  37.32     fin= -83.91     change=  121.2    
eigenvalue    2 init=  40.61     fin= -53.03     change=  93.64    
eigenvalue    3 init=  43.18     fin= -52.75     change=  95.92    
eigenvalue    4 init=  44.02     fin= -51.12     change=  95.14    
eigenvalue    5 init=  46.32     fin= -22.73     change=  69.05    
eigenvalue    6 init=  46.70     fin= -4.292     change=  50.99    
eigenvalue    7 init=  48.34     fin= -.3656     change=  48.71    
eigenvalue    8 init=  49.19     fin=  7.205     change=  41.98    
 Checking convergence criteria
 Diagonalising expanded subspace
 Copying updated data back
eigenvalue    1 init=  37.32     fin= -83.95     change=  121.3    
eigenvalue    2 init=  40.61     fin= -53.31     change=  93.92    
eigenvalue    3 init=  43.18     fin= -52.99     change=  96.16    
eigenvalue    4 init=  44.02     fin= -52.69     change=  96.71    
eigenvalue    5 init=  46.32     fin= -23.01     change=  69.33    
eigenvalue    6 init=  46.70     fin= -4.412     change=  51.11    
eigenvalue    7 init=  48.34     fin= -.3806     change=  48.72    
eigenvalue    8 init=  49.19     fin=  3.635     change=  45.55    
 Checking convergence criteria
 Diagonalising expanded subspace
 Copying updated data back
eigenvalue    9 init=  49.96     fin=  15.39     change=  34.57    
eigenvalue   10 init=  50.35     fin=  16.04     change=  34.31    
eigenvalue   11 init=  51.19     fin=  19.30     change=  31.89    
eigenvalue   12 init=  52.39     fin=  20.20     change=  32.19    
eigenvalue   13 init=  54.26     fin=  22.95     change=  31.31    
eigenvalue   14 init=  55.31     fin=  23.31     change=  32.00    
eigenvalue   15 init=  55.94     fin=  24.88     change=  31.05    
eigenvalue   16 init=  57.01     fin=  26.55     change=  30.47    
 Checking convergence criteria
 Diagonalising expanded subspace
 Copying updated data back
eigenvalue    9 init=  49.96     fin= 0.9155     change=  49.04    
eigenvalue   10 init=  50.35     fin=  3.373     change=  46.98    
eigenvalue   11 init=  51.19     fin=  7.318     change=  43.87    
eigenvalue   12 init=  52.39     fin=  7.905     change=  44.49    
eigenvalue   13 init=  54.26     fin=  8.984     change=  45.27    
eigenvalue   14 init=  55.31     fin=  10.30     change=  45.01    
eigenvalue   15 init=  55.94     fin=  11.45     change=  44.49    
eigenvalue   16 init=  57.01     fin=  15.27     change=  41.75    
 Checking convergence criteria
 Diagonalising expanded subspace
 Copying updated data back
eigenvalue    9 init=  49.96     fin= -6.553     change=  56.51    
eigenvalue   10 init=  50.35     fin= -4.239     change=  54.59    
eigenvalue   11 init=  51.19     fin= 0.3511     change=  50.84    
eigenvalue   12 init=  52.39     fin=  2.125     change=  50.27    
eigenvalue   13 init=  54.26     fin=  3.374     change=  50.88    
eigenvalue   14 init=  55.31     fin=  5.530     change=  49.78    
eigenvalue   15 init=  55.94     fin=  6.270     change=  49.67    
eigenvalue   16 init=  57.01     fin=  9.848     change=  47.16    
 Checking convergence criteria
 Diagonalising expanded subspace
 Copying updated data back
eigenvalue   17 init=  59.01     fin=  23.35     change=  35.67    
 Checking convergence criteria
 Diagonalising expanded subspace
 Copying updated data back
eigenvalue   17 init=  59.01     fin=  8.968     change=  50.04    
 Checking convergence criteria
 Diagonalising expanded subspace
 Copying updated data back
eigenvalue   17 init=  59.01     fin=  3.770     change=  55.24    
 Checking convergence criteria
 no. bands in each block=           8
Kinetic eigenvalue #   1 =     0.54398152E+02
Kinetic eigenvalue #   2 =     0.52420467E+02
Kinetic eigenvalue #   3 =     0.54097857E+02
Kinetic eigenvalue #   4 =     0.53430969E+02
Kinetic eigenvalue #   5 =     0.52364875E+02
Kinetic eigenvalue #   6 =     0.53225335E+02
Kinetic eigenvalue #   7 =     0.53698710E+02
Kinetic eigenvalue #   8 =     0.54892663E+02
Kinetic eigenvalue #   9 =     0.54448538E+02
Kinetic eigenvalue #  10 =     0.53998110E+02
Kinetic eigenvalue #  11 =     0.52643053E+02
Kinetic eigenvalue #  12 =     0.55426760E+02
Kinetic eigenvalue #  13 =     0.54294750E+02
Kinetic eigenvalue #  14 =     0.53552075E+02
Kinetic eigenvalue #  15 =     0.52419598E+02
Kinetic eigenvalue #  16 =     0.53473178E+02
Kinetic eigenvalue #  17 =     0.53875712E+02
 Calculating the R matrix for the precon Sinv operator
 Diagonalising expanded subspace
 Copying updated data back
eigenvalue    1 init=  38.10     fin= -49.96     change=  88.06    
eigenvalue    2 init=  40.04     fin= -9.774     change=  49.82    
eigenvalue    3 init=  42.80     fin=  2.300     change=  40.50    
eigenvalue    4 init=  44.00     fin=  6.450     change=  37.55    
eigenvalue    5 init=  44.81     fin=  9.863     change=  34.95    
eigenvalue    6 init=  45.52     fin=  12.83     change=  32.69    
eigenvalue    7 init=  47.10     fin=  15.77     change=  31.33    
eigenvalue    8 init=  48.22     fin=  19.44     change=  28.78    
 Checking convergence criteria
 Diagonalising expanded subspace
 Copying updated data back
eigenvalue    1 init=  38.10     fin= -81.00     change=  119.1    
eigenvalue    2 init=  40.04     fin= -47.15     change=  87.19    
eigenvalue    3 init=  42.80     fin= -36.14     change=  78.95    
eigenvalue    4 init=  44.00     fin= -29.48     change=  73.48    
eigenvalue    5 init=  44.81     fin= -15.49     change=  60.31    
eigenvalue    6 init=  45.52     fin= -.6783     change=  46.20    
eigenvalue    7 init=  47.10     fin=  4.072     change=  43.03    
eigenvalue    8 init=  48.22     fin=  7.769     change=  40.45    
 Checking convergence criteria
 Diagonalising expanded subspace
 Copying updated data back
eigenvalue    1 init=  38.10     fin= -83.81     change=  121.9    
eigenvalue    2 init=  40.04     fin= -53.32     change=  93.37    
eigenvalue    3 init=  42.80     fin= -51.87     change=  94.68    
eigenvalue    4 init=  44.00     fin= -50.03     change=  94.03    
eigenvalue    5 init=  44.81     fin= -23.21     change=  68.03    
eigenvalue    6 init=  45.52     fin= -7.348     change=  52.87    
eigenvalue    7 init=  47.10     fin= -1.614     change=  48.71    
eigenvalue    8 init=  48.22     fin=  1.230     change=  46.99    
 Checking convergence criteria
 Diagonalising expanded subspace
 Copying updated data back
eigenvalue    1 init=  38.10     fin= -83.84     change=  121.9    
eigenvalue    2 init=  40.04     fin= -53.67     change=  93.71    
eigenvalue    3 init=  42.80     fin= -53.37     change=  96.17    
eigenvalue    4 init=  44.00     fin= -52.64     change=  96.64    
eigenvalue    5 init=  44.81     fin= -23.43     change=  68.25    
eigenvalue    6 init=  45.52     fin= -7.604     change=  53.13    
eigenvalue    7 init=  47.10     fin= -2.197     change=  49.29    
eigenvalue    8 init=  48.22     fin= 0.6208     change=  47.60    
 Checking convergence criteria
 Diagonalising expanded subspace
 Copying updated data back
eigenvalue    9 init=  48.84     fin=  13.38     change=  35.47    
eigenvalue   10 init=  49.56     fin=  17.06     change=  32.50    
eigenvalue   11 init=  51.31     fin=  17.69     change=  33.62    
eigenvalue   12 init=  52.09     fin=  19.27     change=  32.82    
eigenvalue   13 init=  53.56     fin=  22.01     change=  31.55    
eigenvalue   14 init=  54.97     fin=  22.93     change=  32.04    
eigenvalue   15 init=  56.16     fin=  24.10     change=  32.05    
eigenvalue   16 init=  57.22     fin=  25.07     change=  32.15    
 Checking convergence criteria
 Diagonalising expanded subspace
 Copying updated data back
eigenvalue    9 init=  48.84     fin=  1.547     change=  47.30    
eigenvalue   10 init=  49.56     fin=  4.517     change=  45.04    
eigenvalue   11 init=  51.31     fin=  5.435     change=  45.88    
eigenvalue   12 init=  52.09     fin=  7.630     change=  44.46    
eigenvalue   13 init=  53.56     fin=  9.645     change=  43.91    
eigenvalue   14 init=  54.97     fin=  11.07     change=  43.90    
eigenvalue   15 init=  56.16     fin=  12.50     change=  43.65    
eigenvalue   16 init=  57.22     fin=  14.15     change=  43.07    
 Checking convergence criteria
 Diagonalising expanded subspace
 Copying updated data back
eigenvalue    9 init=  48.84     fin= -5.460     change=  54.30    
eigenvalue   10 init=  49.56     fin= -1.345     change=  50.90    
eigenvalue   11 init=  51.31     fin= 0.2001     change=  51.11    
eigenvalue   12 init=  52.09     fin=  2.265     change=  49.83    
eigenvalue   13 init=  53.56     fin=  4.920     change=  48.64    
eigenvalue   14 init=  54.97     fin=  5.249     change=  49.72    
eigenvalue   15 init=  56.16     fin=  6.383     change=  49.77    
eigenvalue   16 init=  57.22     fin=  9.452     change=  47.77    
 Checking convergence criteria
 Diagonalising expanded subspace
 Copying updated data back
eigenvalue   17 init=  59.65     fin=  25.22     change=  34.43    
 Checking convergence criteria
 Diagonalising expanded subspace
 Copying updated data back
eigenvalue   17 init=  59.65     fin=  13.11     change=  46.54    
 Checking convergence criteria
 Diagonalising expanded subspace
 Copying updated data back
eigenvalue   17 init=  59.65     fin=  7.854     change=  51.80    
 Checking convergence criteria
 no. bands in each block=           8
Kinetic eigenvalue #   1 =     0.55566390E+02
Kinetic eigenvalue #   2 =     0.53931003E+02
Kinetic eigenvalue #   3 =     0.54129566E+02
Kinetic eigenvalue #   4 =     0.55458447E+02
Kinetic eigenvalue #   5 =     0.53075404E+02
Kinetic eigenvalue #   6 =     0.55325210E+02
Kinetic eigenvalue #   7 =     0.54296786E+02
Kinetic eigenvalue #   8 =     0.53712529E+02
Kinetic eigenvalue #   9 =     0.54609960E+02
Kinetic eigenvalue #  10 =     0.53708667E+02
Kinetic eigenvalue #  11 =     0.54366008E+02
Kinetic eigenvalue #  12 =     0.55934810E+02
Kinetic eigenvalue #  13 =     0.54174173E+02
Kinetic eigenvalue #  14 =     0.54990465E+02
Kinetic eigenvalue #  15 =     0.53026786E+02
Kinetic eigenvalue #  16 =     0.55387781E+02
Kinetic eigenvalue #  17 =     0.54665619E+02
 Calculating the R matrix for the precon Sinv operator
 Diagonalising expanded subspace
 Copying updated data back
eigenvalue    1 init=  39.03     fin= -50.60     change=  89.63    
eigenvalue    2 init=  41.98     fin= -4.901     change=  46.88    
eigenvalue    3 init=  43.16     fin= -1.195     change=  44.35    
eigenvalue    4 init=  45.14     fin=  6.221     change=  38.92    
eigenvalue    5 init=  45.66     fin=  11.69     change=  33.97    
eigenvalue    6 init=  46.43     fin=  14.15     change=  32.27    
eigenvalue    7 init=  47.93     fin=  15.21     change=  32.73    
eigenvalue    8 init=  49.16     fin=  18.98     change=  30.18    
 Checking convergence criteria
 Diagonalising expanded subspace
 Copying updated data back
eigenvalue    1 init=  39.03     fin= -78.31     change=  117.3    
eigenvalue    2 init=  41.98     fin= -42.07     change=  84.05    
eigenvalue    3 init=  43.16     fin= -35.60     change=  78.76    
eigenvalue    4 init=  45.14     fin= -31.63     change=  76.78    
eigenvalue    5 init=  45.66     fin= -9.533     change=  55.19    
eigenvalue    6 init=  46.43     fin=  1.464     change=  44.97    
eigenvalue    7 init=  47.93     fin=  5.372     change=  42.56    
eigenvalue    8 init=  49.16     fin=  8.032     change=  41.13    
 Checking convergence criteria
 Diagonalising expanded subspace
 Copying updated data back
eigenvalue    1 init=  39.03     fin= -80.26     change=  119.3    
eigenvalue    2 init=  41.98     fin= -49.69     change=  91.67    
eigenvalue    3 init=  43.16     fin= -48.60     change=  91.76    
eigenvalue    4 init=  45.14     fin= -47.68     change=  92.82    
eigenvalue    5 init=  45.66     fin= -20.12     change=  65.78    
eigenvalue    6 init=  46.43     fin= -3.851     change=  50.28    
eigenvalue    7 init=  47.93     fin=  1.463     change=  46.47    
eigenvalue    8 init=  49.16     fin=  2.324     change=  46.84    
 Checking convergence criteria
 Diagonalising expanded subspace
 Copying updated data back
eigenvalue    1 init=  39.03     fin= -80.28     change=  119.3    
eigenvalue    2 init=  41.98     fin= -49.86     change=  91.84    
eigenvalue    3 init=  43.16     fin= -49.49     change=  92.65    
eigenvalue    4 init=  45.14     fin= -48.55     change=  93.69    
eigenvalue    5 init=  45.66     fin= -21.94     change=  67.60    
eigenvalue    6 init=  46.43     fin= -3.882     change=  50.31    
eigenvalue    7 init=  47.93     fin=  1.046     change=  46.89    
eigenvalue    8 init=  49.16     fin=  1.844     change=  47.32    
 Checking convergence criteria
 Diagonalising expanded subspace
 Copying updated data back
eigenvalue    9 init=  49.96     fin=  15.26     change=  34.70    
eigenvalue   10 init=  51.37     fin=  16.13     change=  35.24    
eigenvalue   11 init=  52.61     fin=  18.52     change=  34.09    
eigenvalue   12 init=  53.35     fin=  20.02     change=  33.33    
eigenvalue   13 init=  54.17     fin=  21.48     change=  32.69    
eigenvalue   14 init=  55.35     fin=  23.30     change=  32.05    
eigenvalue   15 init=  56.22     fin=  24.90     change=  31.32    
eigenvalue   16 init=  58.28     fin=  26.89     change=  31.39    
 Checking convergence criteria
 Diagonalising expanded subspace
 Copying updated data back
eigenvalue    9 init=  49.96     fin=  2.557     change=  47.41    
eigenvalue   10 init=  51.37     fin=  4.142     change=  47.22    
eigenvalue   11 init=  52.61     fin=  6.854     change=  45.76    
eigenvalue   12 init=  53.35     fin=  7.417     change=  45.93    
eigenvalue   13 init=  54.17     fin=  10.27     change=  43.90    
eigenvalue   14 init=  55.35     fin=  11.26     change=  44.08    
eigenvalue   15 init=  56.22     fin=  15.09     change=  41.13    
eigenvalue   16 init=  58.28     fin=  16.81     change=  41.47    
 Checking convergence criteria
 Diagonalising expanded subspace
 Copying updated data back
eigenvalue    9 init=  49.96     fin= -3.871     change=  53.84    
eigenvalue   10 init=  51.37     fin= -1.191     change=  52.56    
eigenvalue   11 init=  52.61     fin=  2.514     change=  50.10    
eigenvalue   12 init=  53.35     fin=  2.951     change=  50.40    
eigenvalue   13 init=  54.17     fin=  4.317     change=  49.86    
eigenvalue   14 init=  55.35     fin=  6.451     change=  48.89    
eigenvalue   15 init=  56.22     fin=  9.535     change=  46.69    
eigenvalue   16 init=  58.28     fin=  11.43     change=  46.85    
 Checking convergence criteria
 Diagonalising expanded subspace
 Copying updated data back
eigenvalue   17 init=  59.61     fin=  27.64     change=  31.97    
 Checking convergence criteria
 Diagonalising expanded subspace
 Copying updated data back
eigenvalue   17 init=  59.61     fin=  13.82     change=  45.79    
 Checking convergence criteria
 Diagonalising expanded subspace
 Copying updated data back
eigenvalue   17 init=  59.61     fin=  8.191     change=  51.42    
 Checking convergence criteria
 no. bands in each block=           8
Kinetic eigenvalue #   1 =     0.52297544E+02
Kinetic eigenvalue #   2 =     0.54414588E+02
Kinetic eigenvalue #   3 =     0.53038610E+02
Kinetic eigenvalue #   4 =     0.52549168E+02
Kinetic eigenvalue #   5 =     0.54620397E+02
Kinetic eigenvalue #   6 =     0.52372467E+02
Kinetic eigenvalue #   7 =     0.53452734E+02
Kinetic eigenvalue #   8 =     0.54974816E+02
Kinetic eigenvalue #   9 =     0.54088372E+02
Kinetic eigenvalue #  10 =     0.53794938E+02
Kinetic eigenvalue #  11 =     0.55708426E+02
Kinetic eigenvalue #  12 =     0.53037317E+02
Kinetic eigenvalue #  13 =     0.53926503E+02
Kinetic eigenvalue #  14 =     0.52135141E+02
Kinetic eigenvalue #  15 =     0.54464478E+02
Kinetic eigenvalue #  16 =     0.51919706E+02
Kinetic eigenvalue #  17 =     0.54068546E+02
 Calculating the R matrix for the precon Sinv operator
 Diagonalising expanded subspace
 Copying updated data back
eigenvalue    1 init=  38.87     fin= -42.77     change=  81.64    
eigenvalue    2 init=  40.67     fin= -7.865     change=  48.54    
eigenvalue    3 init=  41.87     fin= -2.539     change=  44.41    
eigenvalue    4 init=  44.23     fin=  4.371     change=  39.86    
eigenvalue    5 init=  45.46     fin=  12.98     change=  32.48    
eigenvalue    6 init=  46.58     fin=  15.96     change=  30.62    
eigenvalue    7 init=  47.07     fin=  18.20     change=  28.87    
eigenvalue    8 init=  48.05     fin=  19.33     change=  28.73    
 Checking convergence criteria
 Diagonalising expanded subspace
 Copying updated data back
eigenvalue    1 init=  38.87     fin= -78.05     change=  116.9    
eigenvalue    2 init=  40.67     fin= -42.81     change=  83.48    
eigenvalue    3 init=  41.87     fin= -37.64     change=  79.51    
eigenvalue    4 init=  44.23     fin= -26.68     change=  70.91    
eigenvalue    5 init=  45.46     fin=  1.221     change=  44.24    
eigenvalue    6 init=  46.58     fin=  5.581     change=  41.00    
eigenvalue    7 init=  47.07     fin=  7.670     change=  39.40    
eigenvalue    8 init=  48.05     fin=  9.245     change=  38.81    
 Checking convergence criteria
 Diagonalising expanded subspace
 Copying updated data back
eigenvalue    1 init=  38.87     fin= -80.20     change=  119.1    
eigenvalue    2 init=  40.67     fin= -49.31     change=  89.99    
eigenvalue    3 init=  41.87     fin= -48.44     change=  90.31    
eigenvalue    4 init=  44.23     fin= -42.86     change=  87.09    
eigenvalue    5 init=  45.46     fin= -12.23     change=  57.69    
eigenvalue    6 init=  46.58     fin= -2.570     change=  49.15    
eigenvalue    7 init=  47.07     fin=  1.303     change=  45.77    
eigenvalue    8 init=  48.05     fin=  2.197     change=  45.86    
 Checking convergence criteria
 Diagonalising expanded subspace
 Copying updated data back
eigenvalue    1 init=  38.87     fin= -80.24     change=  119.1    
eigenvalue    2 init=  40.67     fin= -49.88     change=  90.55    
eigenvalue    3 init=  41.87     fin= -48.92     change=  90.79    
eigenvalue    4 init=  44.23     fin= -48.39     change=  92.62    
eigenvalue    5 init=  45.46     fin= -20.64     change=  66.10    
eigenvalue    6 init=  46.58     fin= -4.300     change=  50.88    
eigenvalue    7 init=  47.07     fin= 0.7005     change=  46.37    
eigenvalue    8 init=  48.05     fin=  2.008     change=  46.05    
 Checking convergence criteria
 Diagonalising expanded subspace
 Copying updated data back
eigenvalue    9 init=  49.09     fin=  15.14     change=  33.95    
eigenvalue   10 init=  50.74     fin=  16.38     change=  34.36    
eigenvalue   11 init=  51.84     fin=  18.84     change=  33.00    
eigenvalue   12 init=  52.79     fin=  20.43     change=  32.36    
eigenvalue   13 init=  53.51     fin=  21.17     change=  32.34    
eigenvalue   14 init=  54.70     fin=  24.10     change=  30.60    
eigenvalue   15 init=  55.33     fin=  24.54     change=  30.79    
eigenvalue   16 init=  56.37     fin=  25.88     change=  30.49    
 Checking convergence criteria
 Diagonalising expanded subspace
 Copying updated data back
eigenvalue    9 init=  49.09     fin=  1.971     change=  47.12    
eigenvalue   10 init=  50.74     fin=  5.574     change=  45.17    
eigenvalue   11 init=  51.84     fin=  7.036     change=  44.81    
eigenvalue   12 init=  52.79     fin=  8.721     change=  44.07    
eigenvalue   13 init=  53.51     fin=  10.86     change=  42.65    
eigenvalue   14 init=  54.70     fin=  12.89     change=  41.80    
eigenvalue   15 init=  55.33     fin=  14.71     change=  40.63    
eigenvalue   16 init=  56.37     fin=  15.06     change=  41.31    
 Checking convergence criteria
 Diagonalising expanded subspace
 Copying updated data back
eigenvalue    9 init=  49.09     fin= -4.515     change=  53.61    
eigenvalue   10 init=  50.74     fin= 0.6219     change=  50.12    
eigenvalue   11 init=  51.84     fin=  2.595     change=  49.25    
eigenvalue   12 init=  52.79     fin=  4.142     change=  48.65    
eigenvalue   13 init=  53.51     fin=  4.913     change=  48.60    
eigenvalue   14 init=  54.70     fin=  8.052     change=  46.64    
eigenvalue   15 init=  55.33     fin=  9.665     change=  45.67    
eigenvalue   16 init=  56.37     fin=  10.50     change=  45.87    
 Checking convergence criteria
 Diagonalising expanded subspace
 Copying updated data back
eigenvalue   17 init=  58.61     fin=  25.24     change=  33.37    
 Checking convergence criteria
 Diagonalising expanded subspace
 Copying updated data back
eigenvalue   17 init=  58.61     fin=  11.87     change=  46.74    
 Checking convergence criteria
 Diagonalising expanded subspace
 Copying updated data back
eigenvalue   17 init=  58.61     fin=  6.737     change=  51.87    
 Checking convergence criteria
 no. bands in each block=           8
Kinetic eigenvalue #   1 =     0.53063120E+02
Kinetic eigenvalue #   2 =     0.54647639E+02
Kinetic eigenvalue #   3 =     0.54540639E+02
Kinetic eigenvalue #   4 =     0.54481906E+02
Kinetic eigenvalue #   5 =     0.52318916E+02
Kinetic eigenvalue #   6 =     0.53180086E+02
Kinetic eigenvalue #   7 =     0.54735348E+02
Kinetic eigenvalue #   8 =     0.53439081E+02
Kinetic eigenvalue #   9 =     0.52900253E+02
Kinetic eigenvalue #  10 =     0.51707889E+02
Kinetic eigenvalue #  11 =     0.52620726E+02
Kinetic eigenvalue #  12 =     0.53119058E+02
Kinetic eigenvalue #  13 =     0.53897533E+02
Kinetic eigenvalue #  14 =     0.54304299E+02
Kinetic eigenvalue #  15 =     0.53024640E+02
Kinetic eigenvalue #  16 =     0.52685840E+02
Kinetic eigenvalue #  17 =     0.52781307E+02
 Calculating the R matrix for the precon Sinv operator
 Diagonalising expanded subspace
 Copying updated data back
eigenvalue    1 init=  38.80     fin= -33.37     change=  72.17    
eigenvalue    2 init=  40.51     fin= -14.95     change=  55.46    
eigenvalue    3 init=  42.94     fin= 0.6549     change=  42.28    
eigenvalue    4 init=  44.05     fin=  10.56     change=  33.49    
eigenvalue    5 init=  45.55     fin=  13.00     change=  32.55    
eigenvalue    6 init=  46.63     fin=  14.66     change=  31.97    
eigenvalue    7 init=  47.59     fin=  16.46     change=  31.14    
eigenvalue    8 init=  48.64     fin=  19.00     change=  29.64    
 Checking convergence criteria
 Diagonalising expanded subspace
 Copying updated data back
eigenvalue    1 init=  38.80     fin= -75.25     change=  114.0    
eigenvalue    2 init=  40.51     fin= -46.09     change=  86.60    
eigenvalue    3 init=  42.94     fin= -38.00     change=  80.94    
eigenvalue    4 init=  44.05     fin= -24.97     change=  69.02    
eigenvalue    5 init=  45.55     fin= -5.782     change=  51.33    
eigenvalue    6 init=  46.63     fin=  3.353     change=  43.27    
eigenvalue    7 init=  47.59     fin=  6.534     change=  41.06    
eigenvalue    8 init=  48.64     fin=  10.06     change=  38.58    
 Checking convergence criteria
 Diagonalising expanded subspace
 Copying updated data back
eigenvalue    1 init=  38.80     fin= -79.44     change=  118.2    
eigenvalue    2 init=  40.51     fin= -50.12     change=  90.63    
eigenvalue    3 init=  42.94     fin= -48.84     change=  91.78    
eigenvalue    4 init=  44.05     fin= -45.26     change=  89.31    
eigenvalue    5 init=  45.55     fin= -19.55     change=  65.10    
eigenvalue    6 init=  46.63     fin= -2.326     change=  48.95    
eigenvalue    7 init=  47.59     fin=  1.146     change=  46.45    
eigenvalue    8 init=  48.64     fin=  4.400     change=  44.24    
 Checking convergence criteria
 Diagonalising expanded subspace
 Copying updated data back
eigenvalue    1 init=  38.80     fin= -79.54     change=  118.3    
eigenvalue    2 init=  40.51     fin= -50.46     change=  90.97    
eigenvalue    3 init=  42.94     fin= -49.03     change=  91.97    
eigenvalue    4 init=  44.05     fin= -48.41     change=  92.46    
eigenvalue    5 init=  45.55     fin= -22.01     change=  67.55    
eigenvalue    6 init=  46.63     fin= -2.415     change=  49.04    
eigenvalue    7 init=  47.59     fin= 0.5929     change=  47.00    
eigenvalue    8 init=  48.64     fin=  2.924     change=  45.71    
 Checking convergence criteria
 Diagonalising expanded subspace
 Copying updated data back
eigenvalue    9 init=  49.00     fin=  15.31     change=  33.69    
eigenvalue   10 init=  49.97     fin=  17.34     change=  32.63    
eigenvalue   11 init=  50.70     fin=  18.54     change=  32.16    
eigenvalue   12 init=  51.84     fin=  20.77     change=  31.07    
eigenvalue   13 init=  53.04     fin=  21.85     change=  31.20    
eigenvalue   14 init=  54.27     fin=  23.99     change=  30.28    
eigenvalue   15 init=  56.04     fin=  26.23     change=  29.81    
eigenvalue   16 init=  56.97     fin=  27.00     change=  29.98    
 Checking convergence criteria
 Diagonalising expanded subspace
 Copying updated data back
eigenvalue    9 init=  49.00     fin=  2.758     change=  46.24    
eigenvalue   10 init=  49.97     fin=  5.450     change=  44.52    
eigenvalue   11 init=  50.70     fin=  6.587     change=  44.12    
eigenvalue   12 init=  51.84     fin=  8.584     change=  43.25    
eigenvalue   13 init=  53.04     fin=  10.76     change=  42.29    
eigenvalue   14 init=  54.27     fin=  12.12     change=  42.15    
eigenvalue   15 init=  56.04     fin=  13.85     change=  42.19    
eigenvalue   16 init=  56.97     fin=  15.32     change=  41.65    
 Checking convergence criteria
 Diagonalising expanded subspace
 Copying updated data back
eigenvalue    9 init=  49.00     fin= -3.025     change=  52.02    
eigenvalue   10 init=  49.97     fin= -.3243     change=  50.29    
eigenvalue   11 init=  50.70     fin=  1.393     change=  49.31    
eigenvalue   12 init=  51.84     fin=  2.932     change=  48.90    
eigenvalue   13 init=  53.04     fin=  5.467     change=  47.58    
eigenvalue   14 init=  54.27     fin=  7.461     change=  46.81    
eigenvalue   15 init=  56.04     fin=  9.037     change=  47.00    
eigenvalue   16 init=  56.97     fin=  10.49     change=  46.49    
 Checking convergence criteria
 Diagonalising expanded subspace
 Copying updated data back
eigenvalue   17 init=  58.52     fin=  23.30     change=  35.22    
 Checking convergence criteria
 Diagonalising expanded subspace
 Copying updated data back
eigenvalue   17 init=  58.52     fin=  12.34     change=  46.18    
 Checking convergence criteria
 Diagonalising expanded subspace
 Copying updated data back
eigenvalue   17 init=  58.52     fin=  8.002     change=  50.51    
 Checking convergence criteria
 no. bands in each block=           8
Kinetic eigenvalue #   1 =     0.53655508E+02
Kinetic eigenvalue #   2 =     0.53134634E+02
Kinetic eigenvalue #   3 =     0.54844522E+02
Kinetic eigenvalue #   4 =     0.54539030E+02
Kinetic eigenvalue #   5 =     0.55097341E+02
Kinetic eigenvalue #   6 =     0.55221681E+02
Kinetic eigenvalue #   7 =     0.54903447E+02
Kinetic eigenvalue #   8 =     0.54927847E+02
Kinetic eigenvalue #   9 =     0.55045069E+02
Kinetic eigenvalue #  10 =     0.53695844E+02
Kinetic eigenvalue #  11 =     0.53694542E+02
Kinetic eigenvalue #  12 =     0.56041478E+02
Kinetic eigenvalue #  13 =     0.53437190E+02
Kinetic eigenvalue #  14 =     0.54545511E+02
Kinetic eigenvalue #  15 =     0.54391127E+02
Kinetic eigenvalue #  16 =     0.54137109E+02
Kinetic eigenvalue #  17 =     0.54375725E+02
 Calculating the R matrix for the precon Sinv operator
 Diagonalising expanded subspace
 Copying updated data back
eigenvalue    1 init=  37.27     fin= -50.11     change=  87.38    
eigenvalue    2 init=  40.82     fin= -7.742     change=  48.56    
eigenvalue    3 init=  43.38     fin= -1.809     change=  45.19    
eigenvalue    4 init=  44.51     fin=  5.040     change=  39.47    
eigenvalue    5 init=  45.41     fin=  10.27     change=  35.14    
eigenvalue    6 init=  46.79     fin=  14.99     change=  31.80    
eigenvalue    7 init=  47.39     fin=  16.99     change=  30.40    
eigenvalue    8 init=  49.05     fin=  18.07     change=  30.98    
 Checking convergence criteria
 Diagonalising expanded subspace
 Copying updated data back
eigenvalue    1 init=  37.27     fin= -78.29     change=  115.6    
eigenvalue    2 init=  40.82     fin= -42.83     change=  83.64    
eigenvalue    3 init=  43.38     fin= -36.87     change=  80.25    
eigenvalue    4 init=  44.51     fin= -29.58     change=  74.09    
eigenvalue    5 init=  45.41     fin= -15.70     change=  61.11    
eigenvalue    6 init=  46.79     fin=  2.638     change=  44.15    
eigenvalue    7 init=  47.39     fin=  5.714     change=  41.67    
eigenvalue    8 init=  49.05     fin=  7.980     change=  41.07    
 Checking convergence criteria
 Diagonalising expanded subspace
 Copying updated data back
eigenvalue    1 init=  37.27     fin= -80.55     change=  117.8    
eigenvalue    2 init=  40.82     fin= -49.83     change=  90.64    
eigenvalue    3 init=  43.38     fin= -48.91     change=  92.29    
eigenvalue    4 init=  44.51     fin= -47.26     change=  91.77    
eigenvalue    5 init=  45.41     fin= -21.92     change=  67.32    
eigenvalue    6 init=  46.79     fin= -2.783     change=  49.57    
eigenvalue    7 init=  47.39     fin= -1.483     change=  48.87    
eigenvalue    8 init=  49.05     fin=  3.095     change=  45.95    
 Checking convergence criteria
 Diagonalising expanded subspace
 Copying updated data back
eigenvalue    1 init=  37.27     fin= -80.59     change=  117.9    
eigenvalue    2 init=  40.82     fin= -49.90     change=  90.72    
eigenvalue    3 init=  43.38     fin= -49.46     change=  92.84    
eigenvalue    4 init=  44.51     fin= -48.79     change=  93.30    
eigenvalue    5 init=  45.41     fin= -22.18     change=  67.59    
eigenvalue    6 init=  46.79     fin= -2.999     change=  49.79    
eigenvalue    7 init=  47.39     fin= -1.532     change=  48.92    
eigenvalue    8 init=  49.05     fin=  2.796     change=  46.25    
 Checking convergence criteria
 Diagonalising expanded subspace
 Copying updated data back
eigenvalue    9 init=  50.61     fin=  14.09     change=  36.52    
eigenvalue   10 init=  51.03     fin=  15.82     change=  35.22    
eigenvalue   11 init=  52.29     fin=  17.77     change=  34.51    
eigenvalue   12 init=  53.90     fin=  20.04     change=  33.86    
eigenvalue   13 init=  54.99     fin=  22.98     change=  32.01    
eigenvalue   14 init=  55.72     fin=  24.12     change=  31.60    
eigenvalue   15 init=  56.71     fin=  25.65     change=  31.06    
eigenvalue   16 init=  57.67     fin=  27.19     change=  30.48    
 Checking convergence criteria
 Diagonalising expanded subspace
 Copying updated data back
eigenvalue    9 init=  50.61     fin=  1.301     change=  49.31    
eigenvalue   10 init=  51.03     fin=  4.833     change=  46.20    
eigenvalue   11 init=  52.29     fin=  7.471     change=  44.82    
eigenvalue   12 init=  53.90     fin=  8.795     change=  45.10    
eigenvalue   13 init=  54.99     fin=  10.56     change=  44.43    
eigenvalue   14 init=  55.72     fin=  11.34     change=  44.38    
eigenvalue   15 init=  56.71     fin=  14.73     change=  41.98    
eigenvalue   16 init=  57.67     fin=  16.29     change=  41.38    
 Checking convergence criteria
 Diagonalising expanded subspace
 Copying updated data back
eigenvalue    9 init=  50.61     fin= -4.346     change=  54.96    
eigenvalue   10 init=  51.03     fin= 0.8634     change=  50.17    
eigenvalue   11 init=  52.29     fin=  2.559     change=  49.73    
eigenvalue   12 init=  53.90     fin=  5.439     change=  48.46    
eigenvalue   13 init=  54.99     fin=  6.395     change=  48.60    
eigenvalue   14 init=  55.72     fin=  7.681     change=  48.04    
eigenvalue   15 init=  56.71     fin=  9.227     change=  47.48    
eigenvalue   16 init=  57.67     fin=  11.36     change=  46.31    
 Checking convergence criteria
 Diagonalising expanded subspace
 Copying updated data back
eigenvalue   17 init=  60.08     fin=  23.48     change=  36.60    
 Checking convergence criteria
 Diagonalising expanded subspace
 Copying updated data back
eigenvalue   17 init=  60.08     fin=  12.11     change=  47.97    
 Checking convergence criteria
 Diagonalising expanded subspace
 Copying updated data back
eigenvalue   17 init=  60.08     fin=  7.426     change=  52.66    
 Checking convergence criteria
 no. bands in each block=           8
Kinetic eigenvalue #   1 =     0.53280068E+02
Kinetic eigenvalue #   2 =     0.53215490E+02
Kinetic eigenvalue #   3 =     0.54229287E+02
Kinetic eigenvalue #   4 =     0.54712712E+02
Kinetic eigenvalue #   5 =     0.53549585E+02
Kinetic eigenvalue #   6 =     0.55071712E+02
Kinetic eigenvalue #   7 =     0.53541104E+02
Kinetic eigenvalue #   8 =     0.52709929E+02
Kinetic eigenvalue #   9 =     0.51750137E+02
Kinetic eigenvalue #  10 =     0.55204898E+02
Kinetic eigenvalue #  11 =     0.53930883E+02
Kinetic eigenvalue #  12 =     0.54045106E+02
Kinetic eigenvalue #  13 =     0.53763687E+02
Kinetic eigenvalue #  14 =     0.53131461E+02
Kinetic eigenvalue #  15 =     0.54073822E+02
Kinetic eigenvalue #  16 =     0.53853550E+02
Kinetic eigenvalue #  17 =     0.53501301E+02
 Calculating the R matrix for the precon Sinv operator
 Diagonalising expanded subspace
 Copying updated data back
eigenvalue    1 init=  38.91     fin= -41.94     change=  80.86    
eigenvalue    2 init=  41.15     fin= -8.909     change=  50.06    
eigenvalue    3 init=  42.73     fin= -5.905     change=  48.64    
eigenvalue    4 init=  43.74     fin=  6.426     change=  37.32    
eigenvalue    5 init=  45.34     fin=  12.27     change=  33.08    
eigenvalue    6 init=  46.08     fin=  15.09     change=  30.99    
eigenvalue    7 init=  47.14     fin=  16.66     change=  30.48    
eigenvalue    8 init=  48.19     fin=  17.91     change=  30.28    
 Checking convergence criteria
 Diagonalising expanded subspace
 Copying updated data back
eigenvalue    1 init=  38.91     fin= -76.83     change=  115.7    
eigenvalue    2 init=  41.15     fin= -43.64     change=  84.79    
eigenvalue    3 init=  42.73     fin= -40.99     change=  83.72    
eigenvalue    4 init=  43.74     fin= -33.33     change=  77.07    
eigenvalue    5 init=  45.34     fin= -2.007     change=  47.35    
eigenvalue    6 init=  46.08     fin=  3.370     change=  42.71    
eigenvalue    7 init=  47.14     fin=  5.283     change=  41.85    
eigenvalue    8 init=  48.19     fin=  8.652     change=  39.53    
 Checking convergence criteria
 Diagonalising expanded subspace
 Copying updated data back
eigenvalue    1 init=  38.91     fin= -79.16     change=  118.1    
eigenvalue    2 init=  41.15     fin= -50.01     change=  91.16    
eigenvalue    3 init=  42.73     fin= -49.02     change=  91.75    
eigenvalue    4 init=  43.74     fin= -48.42     change=  92.16    
eigenvalue    5 init=  45.34     fin= -15.98     change=  61.33    
eigenvalue    6 init=  46.08     fin= -2.858     change=  48.94    
eigenvalue    7 init=  47.14     fin=  1.013     change=  46.13    
eigenvalue    8 init=  48.19     fin=  2.752     change=  45.43    
 Checking convergence criteria
 Diagonalising expanded subspace
 Copying updated data back
eigenvalue    1 init=  38.91     fin= -79.16     change=  118.1    
eigenvalue    2 init=  41.15     fin= -50.18     change=  91.32    
eigenvalue    3 init=  42.73     fin= -49.49     change=  92.22    
eigenvalue    4 init=  43.74     fin= -48.94     change=  92.68    
eigenvalue    5 init=  45.34     fin= -20.96     change=  66.30    
eigenvalue    6 init=  46.08     fin= -3.478     change=  49.56    
eigenvalue    7 init=  47.14     fin= 0.6304     change=  46.51    
eigenvalue    8 init=  48.19     fin=  2.635     change=  45.55    
 Checking convergence criteria
 Diagonalising expanded subspace
 Copying updated data back
eigenvalue    9 init=  49.46     fin=  15.55     change=  33.91    
eigenvalue   10 init=  50.18     fin=  18.28     change=  31.90    
eigenvalue   11 init=  51.47     fin=  19.31     change=  32.15    
eigenvalue   12 init=  54.07     fin=  21.49     change=  32.58    
eigenvalue   13 init=  54.71     fin=  22.86     change=  31.84    
eigenvalue   14 init=  55.05     fin=  23.59     change=  31.46    
eigenvalue   15 init=  55.98     fin=  26.87     change=  29.11    
eigenvalue   16 init=  57.31     fin=  27.48     change=  29.83    
 Checking convergence criteria
 Diagonalising expanded subspace
 Copying updated data back
eigenvalue    9 init=  49.46     fin=  3.893     change=  45.56    
eigenvalue   10 init=  50.18     fin=  5.075     change=  45.10    
eigenvalue   11 init=  51.47     fin=  7.279     change=  44.19    
eigenvalue   12 init=  54.07     fin=  9.100     change=  44.97    
eigenvalue   13 init=  54.71     fin=  10.95     change=  43.76    
eigenvalue   14 init=  55.05     fin=  11.76     change=  43.29    
eigenvalue   15 init=  55.98     fin=  13.74     change=  42.24    
eigenvalue   16 init=  57.31     fin=  15.33     change=  41.97    
 Checking convergence criteria
 Diagonalising expanded subspace
 Copying updated data back
eigenvalue    9 init=  49.46     fin= -1.765     change=  51.22    
eigenvalue   10 init=  50.18     fin= -.7104     change=  50.89    
eigenvalue   11 init=  51.47     fin=  1.024     change=  50.44    
eigenvalue   12 init=  54.07     fin=  3.758     change=  50.31    
eigenvalue   13 init=  54.71     fin=  5.405     change=  49.30    
eigenvalue   14 init=  55.05     fin=  6.677     change=  48.38    
eigenvalue   15 init=  55.98     fin=  8.835     change=  47.14    
eigenvalue   16 init=  57.31     fin=  10.33     change=  46.98    
 Checking convergence criteria
 Diagonalising expanded subspace
 Copying updated data back
[...]
Spin 1, kpoint ( 0.250000 -0.333333  0.333333 ) weight = 0.111111
+--------+-------------------+----------------+
|  Band  |   Eigenvalue      |    Occupancy   |                   <- occ
+--------+-------------------+----------------+                   <- occ
|     8  |   -.722792E+01    |   1.00000      |                   <- occ
|     9  |   -.584930E+01    |   1.00000      |                   <- occ
|    10  |   -.568139E+01    |   1.00000      |                   <- occ
|    11  |   -.423722E+01    |   1.00000      |                   <- occ
|    12  |   -.364976E+01    |  0.999915      |                   <- occ
|    13  |   -.362198E+01    |  0.999816      |                   <- occ
|    14  |   -.178178E+01    |   0.00000      |                   <- occ
|    15  |   0.301203E+00    |   0.00000      |                   <- occ
+--------+-------------------+----------------+                   <- occ
Spin 2, kpoint (-0.250000 -0.333333 -0.333333 ) weight = 0.111111
+--------+-------------------+----------------+
|  Band  |   Eigenvalue      |    Occupancy   |                   <- occ
+--------+-------------------+----------------+                   <- occ
|     8  |   -.585163E+01    |   1.00000      |                   <- occ
|     9  |   -.215301E+01    |  0.440870E-11  |                   <- occ
|    10  |   -.204034E+01    |  0.125455E-13  |                   <- occ
|    11  |   -.194851E+01    |   0.00000      |                   <- occ
|    12  |   -.114267E+01    |   0.00000      |                   <- occ
|    13  |   -.111438E+01    |   0.00000      |                   <- occ
|    14  |   -.217678E+00    |   0.00000      |                   <- occ
|    15  |   0.161473E+01    |   0.00000      |                   <- occ
+--------+-------------------+----------------+                   <- occ
Spin 2, kpoint (-0.250000  0.000000 -0.333333 ) weight = 0.111111
+--------+-------------------+----------------+
|  Band  |   Eigenvalue      |    Occupancy   |                   <- occ
+--------+-------------------+----------------+                   <- occ
|     8  |   -.579654E+01    |   1.00000      |                   <- occ
|     9  |   -.243271E+01    |  0.627275E-06  |                   <- occ
|    10  |   -.213937E+01    |  0.224182E-11  |                   <- occ
|    11  |   -.197089E+01    |  0.222045E-15  |                   <- occ
|    12  |   -.118392E+01    |   0.00000      |                   <- occ
|    13  |   -.995012E+00    |   0.00000      |                   <- occ
|    14  |   -.413884E+00    |   0.00000      |                   <- occ
|    15  |   0.122287E+01    |   0.00000      |                   <- occ
+--------+-------------------+----------------+                   <- occ
Spin 2, kpoint (-0.250000  0.000000  0.333333 ) weight = 0.111111
+--------+-------------------+----------------+
|  Band  |   Eigenvalue      |    Occupancy   |                   <- occ
+--------+-------------------+----------------+                   <- occ
|     8  |   -.579654E+01    |   1.00000      |                   <- occ
|     9  |   -.243271E+01    |  0.627274E-06  |                   <- occ
|    10  |   -.213937E+01    |  0.224182E-11  |                   <- occ
|    11  |   -.197089E+01    |  0.222045E-15  |                   <- occ
|    12  |   -.118392E+01    |   0.00000      |                   <- occ
|    13  |   -.995012E+00    |   0.00000      |                   <- occ
|    14  |   -.413884E+00    |   0.00000      |                   <- occ
|    15  |   0.122287E+01    |   0.00000      |                   <- occ
+--------+-------------------+----------------+                   <- occ
Spin 2, kpoint (-0.250000  0.333333  0.333333 ) weight = 0.111111
+--------+-------------------+----------------+
|  Band  |   Eigenvalue      |    Occupancy   |                   <- occ
+--------+-------------------+----------------+                   <- occ
|     8  |   -.585163E+01    |   1.00000      |                   <- occ
|     9  |   -.215301E+01    |  0.440870E-11  |                   <- occ
|    10  |   -.204034E+01    |  0.125455E-13  |                   <- occ
|    11  |   -.194851E+01    |   0.00000      |                   <- occ
|    12  |   -.114267E+01    |   0.00000      |                   <- occ
|    13  |   -.111438E+01    |   0.00000      |                   <- occ
|    14  |   -.217678E+00    |   0.00000      |                   <- occ
|    15  |   0.161473E+01    |   0.00000      |                   <- occ
+--------+-------------------+----------------+                   <- occ
Spin 2, kpoint ( 0.250000  0.333333  0.000000 ) weight = 0.111111
+--------+-------------------+----------------+
|  Band  |   Eigenvalue      |    Occupancy   |                   <- occ
+--------+-------------------+----------------+                   <- occ
|     8  |   -.579654E+01    |   1.00000      |                   <- occ
|     9  |   -.243271E+01    |  0.627238E-06  |                   <- occ
|    10  |   -.213938E+01    |  0.224198E-11  |                   <- occ
|    11  |   -.197089E+01    |  0.222045E-15  |                   <- occ
|    12  |   -.118392E+01    |   0.00000      |                   <- occ
|    13  |   -.995012E+00    |   0.00000      |                   <- occ
|    14  |   -.413884E+00    |   0.00000      |                   <- occ
|    15  |   0.122287E+01    |   0.00000      |                   <- occ
+--------+-------------------+----------------+                   <- occ
Spin 2, kpoint (-0.250000 -0.333333  0.333333 ) weight = 0.111111
+--------+-------------------+----------------+
|  Band  |   Eigenvalue      |    Occupancy   |                   <- occ
+--------+-------------------+----------------+                   <- occ
|     8  |   -.585163E+01    |   1.00000      |                   <- occ
|     9  |   -.215301E+01    |  0.440870E-11  |                   <- occ
|    10  |   -.204034E+01    |  0.125455E-13  |                   <- occ
|    11  |   -.194851E+01    |   0.00000      |                   <- occ
|    12  |   -.114267E+01    |   0.00000      |                   <- occ
|    13  |   -.111438E+01    |   0.00000      |                   <- occ
|    14  |   -.217678E+00    |   0.00000      |                   <- occ
|    15  |   0.161472E+01    |   0.00000      |                   <- occ
+--------+-------------------+----------------+                   <- occ
Spin 2, kpoint (-0.250000  0.000000  0.000000 ) weight = 0.111111
+--------+-------------------+----------------+
|  Band  |   Eigenvalue      |    Occupancy   |                   <- occ
+--------+-------------------+----------------+                   <- occ
|     8  |   -.580075E+01    |   1.00000      |                   <- occ
|     9  |   -.280573E+01    |  0.135803E-01  |                   <- occ
|    10  |   -.226489E+01    |  0.802314E-09  |                   <- occ
|    11  |   -.194060E+01    |   0.00000      |                   <- occ
|    12  |   -.100845E+01    |   0.00000      |                   <- occ
|    13  |   -.100845E+01    |   0.00000      |                   <- occ
|    14  |   -.617302E+00    |   0.00000      |                   <- occ
|    15  |   0.190941E+01    |   0.00000      |                   <- occ
+--------+-------------------+----------------+                   <- occ
Spin 2, kpoint (-0.250000  0.333333  0.000000 ) weight = 0.111111
+--------+-------------------+----------------+
|  Band  |   Eigenvalue      |    Occupancy   |                   <- occ
+--------+-------------------+----------------+                   <- occ
|     8  |   -.579654E+01    |   1.00000      |                   <- occ
|     9  |   -.243271E+01    |  0.627239E-06  |                   <- occ
|    10  |   -.213938E+01    |  0.224198E-11  |                   <- occ
|    11  |   -.197089E+01    |  0.222045E-15  |                   <- occ
|    12  |   -.118392E+01    |   0.00000      |                   <- occ
|    13  |   -.995012E+00    |   0.00000      |                   <- occ
|    14  |   -.413884E+00    |   0.00000      |                   <- occ
|    15  |   0.122287E+01    |   0.00000      |                   <- occ
+--------+-------------------+----------------+                   <- occ
Spin 2, kpoint ( 0.250000 -0.333333  0.333333 ) weight = 0.111111
+--------+-------------------+----------------+
|  Band  |   Eigenvalue      |    Occupancy   |                   <- occ
+--------+-------------------+----------------+                   <- occ
|     8  |   -.585163E+01    |   1.00000      |                   <- occ
|     9  |   -.215301E+01    |  0.440870E-11  |                   <- occ
|    10  |   -.204034E+01    |  0.125455E-13  |                   <- occ
|    11  |   -.194851E+01    |   0.00000      |                   <- occ
|    12  |   -.114267E+01    |   0.00000      |                   <- occ
|    13  |   -.111438E+01    |   0.00000      |                   <- occ
|    14  |   -.217678E+00    |   0.00000      |                   <- occ
|    15  |   0.161472E+01    |   0.00000      |                   <- occ
+--------+-------------------+----------------+                   <- occ
  achieved Hubbard U energy convergence:   1.3525529376884530E-013
Have a nice day.

Writing analysis data to MnO.castep_bin

Writing model to MnO.check
                            Ewald force:
Species #   1 Atom #   1 Fx: 483.919     Fy:0.185030E-13 Fz:0.185420E-13 eV/A
Species #   2 Atom #   1 Fx:-483.919     Fy:-.184017E-13 Fz:-.185483E-13 eV/A

 Pseudo atomic calculation performed for O 2s2 2p4

 Converged in 24 iterations to a total energy of -431.0932 eV

 Pseudo atomic calculation performed for Mn 3s2 3p6 3d5 4s2

 Converged in 38 iterations to a total energy of -2902.3718 eV
  Accepting available Hubbard U occ matrix: 

     Hubbard U occupation numbers
     ----------------------------
Species   Ion   l  spin               occupancies
==================================================================
  Mn       1    2   up:   0.78  0.98  0.98  1.00  1.00
                    dn:   0.00  0.00  0.32  0.32  0.35
==================================================================

 Density matrix in cubic harmonics:
     0.9446     0.0000     0.0000     0.0955    -0.0000
     0.0000     0.0000     0.0000     0.0000     0.0000
     0.0000     0.9997    -0.0000    -0.0000    -0.0000
     0.0000     0.0000     0.0000     0.0000     0.0000
     0.0000    -0.0000     0.9789    -0.0000     0.0000
     0.0000     0.0000     0.0000     0.0000     0.0000
     0.0955    -0.0000    -0.0000     0.8343     0.0000
     0.0000     0.0000     0.0000     0.0000     0.0000
    -0.0000    -0.0000     0.0000     0.0000     0.9789
     0.0000     0.0000     0.0000     0.0000     0.0000
 Hermiticity:              (0.21399088545086109,0.0000000000000000)
 Density matrix in cubic harmonics:
     0.0867     0.0000     0.0000    -0.1500     0.0000
     0.0000     0.0000     0.0000     0.0000     0.0000
     0.0000     0.0000    -0.0000    -0.0000     0.0000
     0.0000     0.0000     0.0000     0.0000     0.0000
     0.0000    -0.0000     0.3185    -0.0000     0.0000
     0.0000     0.0000     0.0000     0.0000     0.0000
    -0.1500    -0.0000    -0.0000     0.2599     0.0000
     0.0000     0.0000     0.0000     0.0000     0.0000
     0.0000     0.0000     0.0000     0.0000     0.3185
     0.0000     0.0000     0.0000     0.0000     0.0000
 Hermiticity:              (0.66063931402031995,0.0000000000000000)
Hubbard U energy: Ha   =    0.000000000161
Hubbard U forces Ha/A    1     7.747877115931    4.724315314592    4.724315314592    0.000000000001    0.000000000000    0.000000000000
Hubbard U forces Ha/A    2     4.724315314592    4.724315314592    4.724315314592   -0.000000000043    0.000000000000    0.000000000000
  achieved Hubbard U energy convergence:   7.3498644949913272E-007

 *********************** Ewald forces ***********************
 *                                                          *
 *               Cartesian components (eV/A)                *
 * -------------------------------------------------------- *
 *                         x            y            z      *
 *                                                          *
 * O               1    483.91934      0.00000      0.00000 *
 * Mn              1   -483.91934     -0.00000     -0.00000 *
 *                                                          *
 ************************************************************

 ****************** Local potential forces ******************
 *                                                          *
 *               Cartesian components (eV/A)                *
 * -------------------------------------------------------- *
 *                         x            y            z      *
 *                                                          *
 * O               1   -453.54841      0.00000      0.00000 *
 * Mn              1    496.21700     -0.00000     -0.00000 *
 *                                                          *
 ************************************************************

 **************** Non-local potential forces ****************
 *                                                          *
 *               Cartesian components (eV/A)                *
 * -------------------------------------------------------- *
 *                         x            y            z      *
 *                                                          *
 * O               1    -30.21492      0.00000     -0.00000 *
 * Mn              1    -13.34173      0.00000      0.00000 *
 *                                                          *
 ************************************************************

 ************** External Efield and/or dipole ***************
 *                                                          *
 *               Cartesian components (eV/A)                *
 * -------------------------------------------------------- *
 *                         x            y            z      *
 *                                                          *
 * O               1      0.00000      0.00000      0.00000 *
 * Mn              1      0.00000      0.00000      0.00000 *
 *                                                          *
 ************************************************************

 ***************** DM correction to forces ******************
 *                                                          *
 *               Cartesian components (eV/A)                *
 * -------------------------------------------------------- *
 *                         x            y            z      *
 *                                                          *
 * O               1      0.00000      0.00000      0.00000 *
 * Mn              1      0.00000      0.00000      0.00000 *
 *                                                          *
 ************************************************************

 ***************** Hubbard potential forces *****************
 *                                                          *
 *               Cartesian components (eV/A)                *
 * -------------------------------------------------------- *
 *                         x            y            z      *
 *                                                          *
 * O               1      0.00000      0.00000      0.00000 *
 * Mn              1     -0.00000      0.00000      0.00000 *
 *                                                          *
 ************************************************************

 ************************** Forces **************************
 *                                                          *
 *               Cartesian components (eV/A)                *
 * -------------------------------------------------------- *
 *                         x            y            z      *
 *                                                          *
 * O               1      0.60004      0.00000     -0.00000 *
 * Mn              1     -0.60004     -0.00000      0.00000 *
 *                                                          *
 ************************************************************

 Pseudo atomic calculation performed for O 2s2 2p4

 Converged in 24 iterations to a total energy of -431.0932 eV

 Pseudo atomic calculation performed for Mn 3s2 3p6 3d5 4s2

 Converged in 38 iterations to a total energy of -2902.3718 eV
Charge spilling parameter for spin component 1 = 0.18%
Charge spilling parameter for spin component 2 = 0.16%

                   Orbital Populations                  
  ---------------------------------------------------------------
     Ion    Atom   Orbital              Up        Down      Spin
  ---------------------------------------------------------------
      O     1      S                    0.963     0.959     0.004
      O     1      Px                   0.669     0.738    -0.069
      O     1      Py                   0.900     0.728     0.173
      O     1      Pz                   0.900     0.728     0.173
     Mn     1      S                    0.999     1.000    -0.001
     Mn     1      Px                   0.998     0.998     0.000
     Mn     1      Py                   1.000     1.000     0.000
     Mn     1      Pz                   1.000     1.000     0.000
     Mn     1      Dzz                  0.927     0.066     0.861
     Mn     1      Dzy                  1.000     0.000     1.000
     Mn     1      Dzx                  0.971     0.251     0.720
     Mn     1      Dxx-yy               0.782     0.198     0.584
     Mn     1      Dxy                  0.971     0.251     0.720
     Mn     1      S                    0.614     0.021     0.593
     Mn     1      Px                   0.039     0.022     0.017
     Mn     1      Py                   0.132     0.022     0.110
     Mn     1      Pz                   0.132     0.022     0.110
  ---------------------------------------------------------------
                           Total:      12.998     8.002     4.997
  ---------------------------------------------------------------
The total projected populations are: spin up   12.998   0.000, spin down    8.002  -0.000, total   21.000   0.000

     Atomic Populations (Mulliken)
     -----------------------------
Species          Ion Spin      s      p      d      f     Total  Charge(e)   Spin(hbar/2)
=========================================================================================
  O               1   up:     0.96   2.47   0.00   0.00   3.43    -0.59        0.28
                  1   dn:     0.96   2.19   0.00   0.00   3.15
  Mn              1   up:     1.61   3.30   4.65   0.00   9.57     0.59        4.72
                  1   dn:     1.02   3.06   0.77   0.00   4.85
=========================================================================================

                 Bond                   Population        Spin       Length (A)
================================================================================
               O 1 -- Mn 1                   0.64        -0.04          1.60000
================================================================================


Writing analysis data to MnO.castep_bin

Writing model to MnO.check
Initialisation time =      6.62 s
Calculation time    =     32.60 s
Finalisation time   =      0.13 s
Total time          =     39.36 s
Peak Memory Use     = 463000 kB
  
Overall parallel efficiency rating: Excellent (90%)                             
  
Data was distributed by:-
k-point (2-way); efficiency rating: Excellent (91%)                             
  
Parallel notes:
1) Calculation only took 39.2 s, so efficiency estimates may be inaccurate.     
2) k-points were not fully distributed, there were 5 k-points per process.      
  
Efficiencies are estimated from the ratio of communication time to total time,
and do not include all the effects of serial operations or load imbalance.
