 +-------------------------------------------------+
 |                                                 |
 |      CCC   AA    SSS  TTTTT  EEEEE  PPPP        |
 |     C     A  A  S       T    E      P   P       |
 |     C     AAAA   SS     T    EEE    PPPP        |
 |     C     A  A     S    T    E      P           |
 |      CCC  A  A  SSS     T    EEEEE  P           |
 |                                                 |
 +-------------------------------------------------+
 |                                                 |
 | Welcome to Academic Release CASTEP version 19.11|          
 | Ab Initio Total Energy Program                  |
 |                                                 |
 | Authors:                                        |
 | M. Segall, M. Probert, C. Pickard, P. Hasnip,   |
 | S. Clark, K. Refson, J. R. Yates, M. Payne      |
 |                                                 |
 | Contributors:                                   |
 | P. Lindan, P. Haynes, J. White, V. Milman,      |
 | N. Govind, M. Gibson, P. Tulip, V. Cocula,      |
 | B. Montanari, D. Quigley, M. Glover,            |
 | L. Bernasconi, A. Perlov, M. Plummer,           |
 | E. McNellis, J. Meyer, J. Gale, D. Jochym       |
 | J. Aarons, B. Walker, R. Gillen, D. Jones       |
 | T. Green, I. J. Bush, C. J. Armstrong,          |
 | E. J. Higgins, E. L. Brown, M. S. McFly,        |
 | J. Wilkins, B-C. Shih, P. J. P. Byrne           |
 |                                                 |
 | Copyright (c) 2000 - 2018                       |
 |                                                 |
 |     Distributed under the terms of an           |
 |     Agreement between the United Kingdom        |
 |     Car-Parrinello (UKCP) Consortium,           |
 |     Daresbury Laboratory and Accelrys, Inc.     |
 |                                                 |
 | Please cite                                     |
 |                                                 |
 |     "First principles methods using CASTEP"     |
 |                                                 |
 |         Zeitschrift fuer Kristallographie       |
 |           220(5-6) pp. 567-570 (2005)           |
 |                                                 |
 | S. J. Clark, M. D. Segall, C. J. Pickard,       |
 | P. J. Hasnip, M. J. Probert, K. Refson,         |
 | M. C. Payne                                     |
 |                                                 |
 |       in all publications arising from          |
 |              your use of CASTEP                 |
 |                                                 |
 +-------------------------------------------------+
 |                                                 |
 |              http://www.castep.org              |
 |                                                 |
 +-------------------------------------------------+



 Compiled for linux_x86_64_gfortran7.0 on Mon, 30 Mar 2020 12:17:21 +0100
 from code version e1fe0d666396+ Castep191_branch Thu, 24 Oct 2019 13:54:03 +0100
 Compiler: GNU Fortran 7.5.0; Optimisation: fast
 MATHLIBS: Intel MKL(2019.0.5) (LAPACK version 3.7.0)
 FFT Lib : mkl
 Fundamental constants values: CODATA 2014

 Run started: Wed, 04 Nov 2020 19:30:34 +0000

 ******************************* User Parameters *******************************
iprint              : 3          # verbosity control (I)
reuse               : base.check # reuse filename (S)
writebib            : F          # output BibTeX references (L)
writeotfg           : F          # output OTFG files (L)
writecstesp         : F          # output cst_esp file (L)
spin                : 5.0000000  # net spin (R)
spinpolarised       : T          # spin polarised (L)
%block develcode    :            # developers code (B)
iprintu=8,
%endblock develcode :            # developers code (B)

 *******************************************************************************
  

 Atomic calculation performed for O: 1s2 2s2 2p4

 Converged in 60 iterations to an ae energy of -2027.926 eV


 Atomic calculation performed for Mn: 1s2 2s2 2p6 3s2 3p6 3d5 4s2

 Converged in 96 iterations to an ae energy of -31460.102 eV


 Pseudo atomic calculation performed for O 2s2 2p4

 Converged in 24 iterations to a total energy of -431.0932 eV

 Pseudo atomic calculation performed for Mn 3s2 3p6 3d5 4s2

 Converged in 38 iterations to a total energy of -2902.3718 eV
Initialising basis set.

Standard grid dimensions:  48  36  36
Fine grid dimensions:      48  36  36

Plane wave load balancing: max   5869 min   5847 average   5864
True cut-off energy of basis :  22.996
 Reusing data from model file base.check
 Number of symmetry ops  =           1

 ******************************* User Parameters *******************************
iprint              : 3          # verbosity control (I)
reuse               : base.check # reuse filename (S)
writebib            : F          # output BibTeX references (L)
writeotfg           : F          # output OTFG files (L)
writecstesp         : F          # output cst_esp file (L)
spin                : 5.0000000  # net spin (R)
spinpolarised       : T          # spin polarised (L)
%block develcode    :            # developers code (B)
iprintu=8,
%endblock develcode :            # developers code (B)

 *******************************************************************************
  

 Atomic calculation performed for O: 1s2 2s2 2p4

 Converged in 60 iterations to an ae energy of -2027.926 eV


 Atomic calculation performed for Mn: 1s2 2s2 2p6 3s2 3p6 3d5 4s2

 Converged in 96 iterations to an ae energy of -31460.102 eV


 Pseudo atomic calculation performed for O 2s2 2p4

 Converged in 24 iterations to a total energy of -431.0932 eV

 Pseudo atomic calculation performed for Mn 3s2 3p6 3d5 4s2

 Converged in 38 iterations to a total energy of -2902.3718 eV
Initialising basis set.

Standard grid dimensions:  48  36  36
Fine grid dimensions:      48  36  36

Plane wave load balancing: max   5869 min   5847 average   5864
True cut-off energy of basis :  22.996
K-point set unchanged, read in wavefunction.
Reusing density from model file.
 Calculation parallelised over 2 processes.
 Data is distributed by k-point(2-way)

 ************************************ Title ************************************
 

 ***************************** General Parameters ******************************
  
 output verbosity                               : extreme (3)
 reusing                                        : base.check
 write checkpoint data to                       : MnO.check
 type of calculation                            : single point energy
 stress calculation                             : off
 density difference calculation                 : off
 electron localisation func (ELF) calculation   : off
 Hirshfeld analysis                             : off
 unlimited duration calculation
 timing information                             : on
 memory usage estimate                          : on
 write extra output files                       : on
 write final potential to formatted file        : off
 write final density to formatted file          : off
 write BibTeX reference list                    : off
 write OTFG pseudopotential files               : off
 write electrostatic potential file             : off
 write bands file                               : on
 checkpoint writing                             : both castep_bin and check files
  
 output         length unit                     : A
 output           mass unit                     : amu
 output           time unit                     : ps
 output         charge unit                     : e
 output           spin unit                     : hbar/2
 output         energy unit                     : eV
 output          force unit                     : eV/A
 output       velocity unit                     : A/ps
 output       pressure unit                     : GPa
 output     inv_length unit                     : 1/A
 output      frequency unit                     : cm-1
 output force constant unit                     : eV/A**2
 output         volume unit                     : A**3
 output   IR intensity unit                     : (D/A)**2/amu
 output         dipole unit                     : D
 output         efield unit                     : eV/A/e
 output        entropy unit                     : J/mol/K
  
 wavefunctions paging                           : none
 random number generator seed                   : randomised (193041506)
 data distribution                              : optimal for this architecture
 optimization strategy                          : balance speed and memory

 *********************** Exchange-Correlation Parameters ***********************
  
 using functional                               : Local Density Approximation
 relativistic treatment                         : Koelling-Harmon
 DFT+D: Semi-empirical dispersion correction    : off

 ************************* Pseudopotential Parameters **************************
  
 pseudopotential representation                 : reciprocal space
 <beta|phi> representation                      : reciprocal space
 spin-orbit coupling                            : off

 **************************** Basis Set Parameters *****************************
  
 basis set accuracy                             : FINE
 plane wave basis set cut-off                   :   625.8619   eV
 size of standard grid                          :     1.7500
 size of   fine   gmax                          :    22.4293   1/A
 largest prime factor in FFT                    :          5
 finite basis set correction                    : none

 **************************** Electronic Parameters ****************************
  
 number of  electrons                           :  21.00    
 net charge of system                           :  0.000    
 net spin   of system                           :  5.000    
 number of  up  spins                           :  13.00    
 number of down spins                           :  8.000    
 treating system as spin-polarized
 number of bands                                :         17

 ********************* Electronic Minimization Parameters **********************
  
 Method: Treating system as metallic with density mixing treatment of electrons,
         and number of  SD  steps               :          1
         and number of  CG  steps               :          4
  
 total energy / atom convergence tol.           : 0.1000E-04   eV
 eigen-energy convergence tolerance             : 0.1000E-05   eV
 max force / atom convergence tol.              : ignored
 convergence tolerance window                   :          3   cycles
 max. number of SCF cycles                      :         30
 number of fixed-spin iterations                :         10
 smearing scheme                                : Gaussian
 smearing width                                 : 0.2000       eV
 Fermi energy convergence tolerance             : 0.2721E-13   eV
 periodic dipole correction                     : NONE

 ************************** Density Mixing Parameters **************************
  
 density-mixing scheme                          : Broyden
 max. length of mixing history                  :         20
 charge density mixing amplitude                : 0.8000    
   spin density mixing amplitude                :  2.000    
 charge density mixing g-vector                 :  1.500       1/A
   spin density mixing g-vector                 :  1.500       1/A

 *********************** Population Analysis Parameters ************************
  
 Population analysis with cutoff                :  3.000       A
 Population analysis output                     : summary and pdos components

 ******************************* Developer Code ********************************
  
 iprintu=8,

 *******************************************************************************
  

                           -------------------------------
                                      Unit Cell
                           -------------------------------
        Real Lattice(A)                      Reciprocal Lattice(1/A)
     6.6000000     0.0000000     0.0000000        0.951997774   0.000000000   0.000000000
     0.0000000     5.0000000     0.0000000        0.000000000   1.256637061   0.000000000
     0.0000000     0.0000000     5.0000000        0.000000000   0.000000000   1.256637061

                       Lattice parameters(A)       Cell Angles
                    a =      6.600000          alpha =   90.000000
                    b =      5.000000          beta  =   90.000000
                    c =      5.000000          gamma =   90.000000

                       Current cell volume =           165.000000       A**3
                                   density =             0.429924   AMU/A**3
                                           =             0.713905     g/cm^3

                           -------------------------------
                                     Cell Contents
                           -------------------------------
                         Total number of ions in cell =    2
                      Total number of species in cell =    2
                        Max number of any one species =    1

            xxxxxxxxxxxxxxxxxxxxxxxxxxxxxxxxxxxxxxxxxxxxxxxxxxxxxxxxxxxx
            x  Element    Atom        Fractional coordinates of atoms  x
            x            Number           u          v          w      x
            x----------------------------------------------------------x
            x  O            1         0.621212   0.500000   0.500000   x 
            x  Mn           1         0.378788   0.500000   0.500000   x 
            xxxxxxxxxxxxxxxxxxxxxxxxxxxxxxxxxxxxxxxxxxxxxxxxxxxxxxxxxxxx


                         No user defined ionic velocities

                           -------------------------------
                                   Details of Species
                           -------------------------------

                               Mass of species in AMU
                                    O   15.9994000
                                    Mn   54.9380500

                          Electric Quadrupole Moment (Barn)
                                    O   -0.0255800 Isotope 17
                                    Mn    0.3300000 Isotope 55


         Quantisation axis:    0.00000   0.00000   1.00000

         Units for Hubbard U values are eV
         xxxxxxxxxxxxxxxxxxxxxxxxxxxxxxxxxxxxxxxxxxxxxxxxxxxxxxxxxxxxxxxxxxxx
         |  Element     Atom     Hubbard U   values by orbital type         |
         |             Number      s          p          d          f       |
         |------------------------------------------------------------------|
         |O             1         0.00000    0.00000    0.00000    0.00000  |
         |Mn            1         0.00000    0.00000    0.00000    0.00000  |
         xxxxxxxxxxxxxxxxxxxxxxxxxxxxxxxxxxxxxxxxxxxxxxxxxxxxxxxxxxxxxxxxxxxx


                          Files used for pseudopotentials:
                                    O 2|1.1|17|20|23|20:21(qc=8)
                                    Mn 3|1.8|1.8|0.6|12|14|16|30U:40:31:32(qc=7)

                           -------------------------------
                              k-Points For BZ Sampling
                           -------------------------------
                       MP grid size for SCF calculation is  2  3  3
                            with an offset of   0.000  0.000  0.000
                       Number of kpoints used =             9

             +++++++++++++++++++++++++++++++++++++++++++++++++++++++
             +  Number       Fractional coordinates        Weight  +
             +-----------------------------------------------------+
             +     1  -0.250000  -0.333333  -0.333333   0.1111111  +
             +     2  -0.250000  -0.333333   0.333333   0.1111111  +
             +     3  -0.250000   0.000000  -0.333333   0.1111111  +
             +     4  -0.250000   0.000000   0.000000   0.1111111  +
             +     5  -0.250000   0.000000   0.333333   0.1111111  +
             +     6  -0.250000   0.333333   0.000000   0.1111111  +
             +     7  -0.250000   0.333333   0.333333   0.1111111  +
             +     8   0.250000  -0.333333   0.333333   0.1111111  +
             +     9   0.250000   0.333333   0.000000   0.1111111  +
             +++++++++++++++++++++++++++++++++++++++++++++++++++++++

                           -------------------------------
                               Symmetry and Constraints
                           -------------------------------

                      Maximum deviation from symmetry =  0.00000         ANG

                      Number of symmetry operations   =           1
                      Number of ionic constraints     =           3
                      Point group of crystal =     1: C1, 1, 1
                      Space group of crystal =    99: P4mm, P 4 -2

                    1 rotation    
                 (   1.00000000000   0.00000000000   0.00000000000 )
                 (   0.00000000000   1.00000000000   0.00000000000 )
                 (   0.00000000000   0.00000000000   1.00000000000 )
                    1 displacement
                 (   0.00000000000   0.00000000000   0.00000000000 )
                      symmetry related atoms: 
             O:    1
             Mn:    1


                         Centre of mass is constrained

            xxxxxxxxxxxxxxxxxxxxxxxxxxxxxxxxxxxxxxxxxxxxxxxxxxxxxxxxxxxxxx....
            x  Species       atom   co-ordinate  constraints.....         
            x-------------------------------------------------------------....
            x O                 1       x        29165.1220      0.0000      0.0000
            x O                 1       y            0.0000  29165.1220      0.0000
            x O                 1       z            0.0000      0.0000  29165.1220
            x Mn                1       x       100145.9388      0.0000      0.0000
            x Mn                1       y            0.0000 100145.9388      0.0000
            x Mn                1       z            0.0000      0.0000 100145.9388
            xxxxxxxxxxxxxxxxxxxxxxxxxxxxxxxxxxxxxxxxxxxxxxxxxxxxxxxxxxxxxx....

                         Number of cell constraints= 0
                         Cell constraints are:  1 2 3 4 5 6

                         External pressure/stress (GPa)
                          0.00000   0.00000   0.00000
                                    0.00000   0.00000
                                              0.00000
Density mixing plane wave load balancing: max      0 min      0 average      0
  
+---------------- MEMORY AND SCRATCH DISK ESTIMATES PER PROCESS --------------+
|                                                     Memory          Disk    |
| Baseline code, static data and system overhead      354.0 MB         0.0 MB |
| BLAS internal memory storage                          0.0 MB         0.0 MB |
| Model and support data                               67.2 MB       110.4 MB |
| Electronic energy minimisation requirements          51.6 MB         0.0 MB |
| Force calculation requirements                       13.8 MB         0.0 MB |
|                                               ----------------------------- |
| Approx. total storage required per process          472.8 MB       110.4 MB |
|                                                                             |
| Requirements will fluctuate during execution and may exceed these estimates |
+-----------------------------------------------------------------------------+
Calculating total energy with cut-off of  625.862 eV.
electronic_minimisation: Initialising

 Pseudo atomic calculation performed for O 2s2 2p4

 Converged in 24 iterations to a total energy of -431.0932 eV

 Pseudo atomic calculation performed for Mn 3s2 3p6 3d5 4s2

 Converged in 38 iterations to a total energy of -2902.3718 eV
  Initializing Hubbard U occ matrix: 

     Hubbard U occupation numbers
     ----------------------------
Species   Ion   l  spin               occupancies
==================================================================
  Mn       1    2   up:   0.00  0.00  1.00  1.00  1.00
                    dn:   0.00  0.00  1.00  1.00  1.00
==================================================================

electronic_minimisation: Initialising density mixing
 Initialising mixing density basis set.
Density mixing plane wave load balancing: max   5871 min   5871 average   5871
Calculating Ewald energy for ionic configuration
              Ewald: real-space energy =     359.826811 eV
        Ewald: reciprocal-space energy =      93.920754 eV
         Ewald: (sum_charge)**2 Energy =     459.468501 eV
         Ewald: (sum_charge**2) Energy =     769.135141 eV
                          Ewald Energy =    -774.856077 eV
Calculating non-Coulombic energy for ionic configuration
Symmetrising density
Calculating local potential
Calculating Hubbard U potential
 Density matrix in cubic harmonics:
     1.0000     0.0000     0.0000     0.0000     0.0000
     0.0000     0.0000     0.0000     0.0000     0.0000
     0.0000     0.0000     0.0000     0.0000     0.0000
     0.0000     0.0000     0.0000     0.0000     0.0000
     0.0000     0.0000     0.0000     0.0000     0.0000
     0.0000     0.0000     0.0000     0.0000     0.0000
     0.0000     0.0000     0.0000     1.0000     0.0000
     0.0000     0.0000     0.0000     0.0000     0.0000
     0.0000     0.0000     0.0000     0.0000     1.0000
     0.0000     0.0000     0.0000     0.0000     0.0000
 Hermiticity:        (-4.44089209850062616E-016,0.0000000000000000)
 Density matrix in cubic harmonics:
     1.0000     0.0000     0.0000     0.0000     0.0000
     0.0000     0.0000     0.0000     0.0000     0.0000
     0.0000     0.0000     0.0000     0.0000     0.0000
     0.0000     0.0000     0.0000     0.0000     0.0000
     0.0000     0.0000     0.0000     0.0000     0.0000
     0.0000     0.0000     0.0000     0.0000     0.0000
     0.0000     0.0000     0.0000     1.0000     0.0000
     0.0000     0.0000     0.0000     0.0000     0.0000
     0.0000     0.0000     0.0000     0.0000     1.0000
     0.0000     0.0000     0.0000     0.0000     0.0000
 Hermiticity:        (-4.44089209850062616E-016,0.0000000000000000)
Calculating non-local weights
Calculating KE and non-local eigenvalues to find total energy
 
Init
Exchange-correlation energy      =      -499.07913191541501874 eV
+Hartree energy                  =      2055.86480228865912068 eV
+Local pseudopotential energy    =     -5072.04198973965321784 eV
----------------------------------
Potential energy (total)         =     -3515.25631936638410480 eV
                                  
+Hubbard U energy                =        -0.95999999999999996 eV
+Kinetic energy                  =       776.91409201055114409 eV
+Non-local energy                =       152.02656221898419631 eV
+Electronic entropy term (-TS)   =         0.00000000000000000 eV
+Ewald energy (const)            =      -774.85607651874397561 eV
+non-Coulombic energy (const)    =        13.80612138473854067 eV
----------------------------------
Total free energy (E-TS)         =     -3348.32562027085396039 eV
 
NB est. 0K energy (E-0.5TS)      =     -3348.32562027085396039 eV
 
(XC correction to eigenvalue sum =        44.01690523340165129 eV)
(Hubbard U correction to eigenvalu         0.00000003000000000 eV)
 
------------------------------------------------------------------------ <-- SCF
SCF loop      Energy           Fermi           Energy gain       Timer   <-- SCF
                               energy          per atom          (sec)   <-- SCF
------------------------------------------------------------------------ <-- SCF
Initial  -3.34832562E+003  0.00000000E+000                        14.70  <-- SCF
Starting SCF cycle     1 of up to    30
 no. bands in each block=           8
Kinetic eigenvalue #   1 =     0.38348966E+02
Kinetic eigenvalue #   2 =     0.39990483E+02
Kinetic eigenvalue #   3 =     0.39990481E+02
Kinetic eigenvalue #   4 =     0.39595183E+02
Kinetic eigenvalue #   5 =     0.25112526E+02
Kinetic eigenvalue #   6 =     0.42186730E+02
Kinetic eigenvalue #   7 =     0.37391956E+02
Kinetic eigenvalue #   8 =     0.37412407E+02
Kinetic eigenvalue #   9 =     0.37900587E+02
Kinetic eigenvalue #  10 =     0.37455926E+02
Kinetic eigenvalue #  11 =     0.23372304E+02
Kinetic eigenvalue #  12 =     0.38336692E+02
Kinetic eigenvalue #  13 =     0.38452582E+02
Kinetic eigenvalue #  14 =     0.24719286E+02
Kinetic eigenvalue #  15 =     0.13655775E+02
Kinetic eigenvalue #  16 =     0.14273377E+02
Kinetic eigenvalue #  17 =     0.77296045E+01
 Calculating the R matrix for the precon Sinv operator
 Diagonalising expanded subspace
 Copying updated data back
eigenvalue    1 init= -83.96     fin= -83.96     change= 0.2189E-08
eigenvalue    2 init= -53.14     fin= -53.14     change= 0.5205E-10
eigenvalue    3 init= -53.14     fin= -53.14     change= 0.4982E-10
eigenvalue    4 init= -52.98     fin= -52.98     change= 0.1380E-08
eigenvalue    5 init= -20.24     fin= -20.24     change= 0.2856E-05
eigenvalue    6 init= -7.715     fin= -7.715     change= 0.2028E-04
eigenvalue    7 init= -7.330     fin= -7.330     change= 0.3914E-05
eigenvalue    8 init= -7.329     fin= -7.329     change= 0.3964E-05
 Checking convergence criteria
 Diagonalising expanded subspace
 Copying updated data back
eigenvalue    1 init= -83.96     fin= -83.96     change= 0.2204E-08
eigenvalue    2 init= -53.14     fin= -53.14     change= 0.5224E-10
eigenvalue    3 init= -53.14     fin= -53.14     change= 0.4994E-10
eigenvalue    4 init= -52.98     fin= -52.98     change= 0.1465E-08
eigenvalue    5 init= -20.24     fin= -20.24     change= 0.3012E-05
eigenvalue    6 init= -7.715     fin= -7.715     change= 0.2162E-04
eigenvalue    7 init= -7.330     fin= -7.330     change= 0.4227E-05
eigenvalue    8 init= -7.329     fin= -7.329     change= 0.4265E-05
 Checking convergence criteria
 Diagonalising expanded subspace
 Copying updated data back
eigenvalue    9 init= -6.009     fin= -6.009     change= 0.9258E-07
eigenvalue   10 init= -5.842     fin= -5.842     change= 0.4414E-06
eigenvalue   11 init= -4.276     fin= -4.276     change= 0.1180E-04
eigenvalue   12 init= -3.705     fin= -3.705     change= 0.2712E-05
eigenvalue   13 init= -3.678     fin= -3.678     change= 0.4885E-05
eigenvalue   14 init= -1.808     fin= -1.808     change= 0.1097E-04
eigenvalue   15 init= 0.2985     fin= 0.2985     change= 0.2555E-06
eigenvalue   16 init= 0.4285     fin= 0.4285     change= 0.2413E-06
 Checking convergence criteria
 Diagonalising expanded subspace
 Copying updated data back
eigenvalue    9 init= -6.009     fin= -6.009     change= 0.9280E-07
eigenvalue   10 init= -5.842     fin= -5.842     change= 0.4541E-06
eigenvalue   11 init= -4.276     fin= -4.276     change= 0.1297E-04
eigenvalue   12 init= -3.705     fin= -3.705     change= 0.3024E-05
eigenvalue   13 init= -3.678     fin= -3.678     change= 0.5398E-05
eigenvalue   14 init= -1.808     fin= -1.808     change= 0.1241E-04
eigenvalue   15 init= 0.2985     fin= 0.2985     change= 0.2779E-06
eigenvalue   16 init= 0.4285     fin= 0.4285     change= 0.3124E-06
 Checking convergence criteria
 Diagonalising expanded subspace
 Copying updated data back
eigenvalue   17 init=  2.639     fin=  2.639     change= 0.4181E-06
 Checking convergence criteria
 no. bands in each block=           8
Kinetic eigenvalue #   1 =     0.38348939E+02
Kinetic eigenvalue #   2 =     0.39990472E+02
Kinetic eigenvalue #   3 =     0.39990660E+02
Kinetic eigenvalue #   4 =     0.39595175E+02
Kinetic eigenvalue #   5 =     0.25099043E+02
Kinetic eigenvalue #   6 =     0.42122292E+02
Kinetic eigenvalue #   7 =     0.37333011E+02
Kinetic eigenvalue #   8 =     0.37797759E+02
Kinetic eigenvalue #   9 =     0.37459158E+02
Kinetic eigenvalue #  10 =     0.37726085E+02
Kinetic eigenvalue #  11 =     0.20289061E+02
Kinetic eigenvalue #  12 =     0.37545413E+02
Kinetic eigenvalue #  13 =     0.41168583E+02
Kinetic eigenvalue #  14 =     0.25570923E+02
Kinetic eigenvalue #  15 =     0.13556301E+02
Kinetic eigenvalue #  16 =     0.80528776E+01
Kinetic eigenvalue #  17 =     0.17119358E+02
 Calculating the R matrix for the precon Sinv operator
 Diagonalising expanded subspace
 Copying updated data back
eigenvalue    1 init= -83.96     fin= -83.96     change= 0.2315E-08
eigenvalue    2 init= -53.14     fin= -53.14     change= 0.5055E-10
eigenvalue    3 init= -53.14     fin= -53.14     change= 0.4613E-10
eigenvalue    4 init= -52.98     fin= -52.98     change= 0.1257E-08
eigenvalue    5 init= -20.24     fin= -20.24     change= 0.2554E-05
eigenvalue    6 init= -7.719     fin= -7.719     change= 0.1830E-04
eigenvalue    7 init= -7.334     fin= -7.334     change= 0.4221E-05
eigenvalue    8 init= -7.299     fin= -7.299     change= 0.2212E-05
 Checking convergence criteria
 Diagonalising expanded subspace
 Copying updated data back
eigenvalue    1 init= -83.96     fin= -83.96     change= 0.2354E-08
eigenvalue    2 init= -53.14     fin= -53.14     change= 0.5078E-10
eigenvalue    3 init= -53.14     fin= -53.14     change= 0.4631E-10
eigenvalue    4 init= -52.98     fin= -52.98     change= 0.1333E-08
eigenvalue    5 init= -20.24     fin= -20.24     change= 0.2688E-05
eigenvalue    6 init= -7.719     fin= -7.719     change= 0.1953E-04
eigenvalue    7 init= -7.334     fin= -7.334     change= 0.4549E-05
eigenvalue    8 init= -7.299     fin= -7.299     change= 0.2348E-05
 Checking convergence criteria
 Diagonalising expanded subspace
 Copying updated data back
eigenvalue    9 init= -6.043     fin= -6.043     change= 0.1516E-06
eigenvalue   10 init= -5.822     fin= -5.822     change= 0.2983E-06
eigenvalue   11 init= -4.525     fin= -4.525     change= 0.9291E-05
eigenvalue   12 init= -3.725     fin= -3.725     change= 0.4082E-05
eigenvalue   13 init= -3.577     fin= -3.577     change= 0.1469E-05
eigenvalue   14 init= -2.002     fin= -2.002     change= 0.1076E-04
eigenvalue   15 init= -.6814E-01 fin= -.6814E-01 change= 0.2676E-06
eigenvalue   16 init=  2.021     fin=  2.021     change= 0.1235E-05
 Checking convergence criteria
 Diagonalising expanded subspace
 Copying updated data back
eigenvalue    9 init= -6.043     fin= -6.043     change= 0.1545E-06
eigenvalue   10 init= -5.822     fin= -5.822     change= 0.2991E-06
eigenvalue   11 init= -4.525     fin= -4.525     change= 0.1038E-04
eigenvalue   12 init= -3.725     fin= -3.725     change= 0.4571E-05
eigenvalue   13 init= -3.577     fin= -3.577     change= 0.1581E-05
eigenvalue   14 init= -2.002     fin= -2.002     change= 0.1248E-04
eigenvalue   15 init= -.6814E-01 fin= -.6814E-01 change= 0.3139E-06
eigenvalue   16 init=  2.021     fin=  2.021     change= 0.1732E-05
 Checking convergence criteria
 Diagonalising expanded subspace
 Copying updated data back
eigenvalue   17 init=  2.481     fin=  2.481     change= 0.6118E-07
 Checking convergence criteria
 no. bands in each block=           8
Kinetic eigenvalue #   1 =     0.38348954E+02
Kinetic eigenvalue #   2 =     0.39990472E+02
Kinetic eigenvalue #   3 =     0.39990660E+02
Kinetic eigenvalue #   4 =     0.39595175E+02
Kinetic eigenvalue #   5 =     0.25099043E+02
Kinetic eigenvalue #   6 =     0.42122290E+02
Kinetic eigenvalue #   7 =     0.37333009E+02
Kinetic eigenvalue #   8 =     0.37797753E+02
Kinetic eigenvalue #   9 =     0.37459157E+02
Kinetic eigenvalue #  10 =     0.37726085E+02
Kinetic eigenvalue #  11 =     0.20289048E+02
Kinetic eigenvalue #  12 =     0.37545412E+02
Kinetic eigenvalue #  13 =     0.41168606E+02
Kinetic eigenvalue #  14 =     0.25570897E+02
Kinetic eigenvalue #  15 =     0.13556246E+02
Kinetic eigenvalue #  16 =     0.80526225E+01
Kinetic eigenvalue #  17 =     0.17119021E+02
 Calculating the R matrix for the precon Sinv operator
 Diagonalising expanded subspace
 Copying updated data back
eigenvalue    1 init= -83.96     fin= -83.96     change= 0.2185E-08
eigenvalue    2 init= -53.14     fin= -53.14     change= 0.5043E-10
eigenvalue    3 init= -53.14     fin= -53.14     change= 0.4619E-10
eigenvalue    4 init= -52.98     fin= -52.98     change= 0.1255E-08
eigenvalue    5 init= -20.24     fin= -20.24     change= 0.2555E-05
eigenvalue    6 init= -7.719     fin= -7.719     change= 0.1833E-04
eigenvalue    7 init= -7.334     fin= -7.334     change= 0.4219E-05
eigenvalue    8 init= -7.299     fin= -7.299     change= 0.2210E-05
 Checking convergence criteria
 Diagonalising expanded subspace
 Copying updated data back
eigenvalue    1 init= -83.96     fin= -83.96     change= 0.2219E-08
eigenvalue    2 init= -53.14     fin= -53.14     change= 0.5066E-10
eigenvalue    3 init= -53.14     fin= -53.14     change= 0.4639E-10
eigenvalue    4 init= -52.98     fin= -52.98     change= 0.1333E-08
eigenvalue    5 init= -20.24     fin= -20.24     change= 0.2689E-05
eigenvalue    6 init= -7.719     fin= -7.719     change= 0.1955E-04
eigenvalue    7 init= -7.334     fin= -7.334     change= 0.4547E-05
eigenvalue    8 init= -7.299     fin= -7.299     change= 0.2346E-05
 Checking convergence criteria
 Diagonalising expanded subspace
 Copying updated data back
eigenvalue    9 init= -6.043     fin= -6.043     change= 0.1517E-06
eigenvalue   10 init= -5.822     fin= -5.822     change= 0.2984E-06
eigenvalue   11 init= -4.525     fin= -4.525     change= 0.9291E-05
eigenvalue   12 init= -3.725     fin= -3.725     change= 0.4081E-05
eigenvalue   13 init= -3.577     fin= -3.577     change= 0.1461E-05
eigenvalue   14 init= -2.002     fin= -2.002     change= 0.1076E-04
eigenvalue   15 init= -.6814E-01 fin= -.6814E-01 change= 0.2693E-06
eigenvalue   16 init=  2.021     fin=  2.021     change= 0.1200E-05
 Checking convergence criteria
 Diagonalising expanded subspace
 Copying updated data back
eigenvalue    9 init= -6.043     fin= -6.043     change= 0.1550E-06
eigenvalue   10 init= -5.822     fin= -5.822     change= 0.2992E-06
eigenvalue   11 init= -4.525     fin= -4.525     change= 0.1036E-04
eigenvalue   12 init= -3.725     fin= -3.725     change= 0.4559E-05
eigenvalue   13 init= -3.577     fin= -3.577     change= 0.1573E-05
eigenvalue   14 init= -2.002     fin= -2.002     change= 0.1243E-04
eigenvalue   15 init= -.6814E-01 fin= -.6814E-01 change= 0.3155E-06
eigenvalue   16 init=  2.021     fin=  2.021     change= 0.1654E-05
 Checking convergence criteria
 Diagonalising expanded subspace
 Copying updated data back
eigenvalue   17 init=  2.481     fin=  2.481     change= 0.1011E-06
 Checking convergence criteria
 no. bands in each block=           8
Kinetic eigenvalue #   1 =     0.38348971E+02
Kinetic eigenvalue #   2 =     0.39990483E+02
Kinetic eigenvalue #   3 =     0.39990481E+02
Kinetic eigenvalue #   4 =     0.39595183E+02
Kinetic eigenvalue #   5 =     0.25112526E+02
Kinetic eigenvalue #   6 =     0.42186747E+02
Kinetic eigenvalue #   7 =     0.37391950E+02
Kinetic eigenvalue #   8 =     0.37412406E+02
Kinetic eigenvalue #   9 =     0.37900587E+02
Kinetic eigenvalue #  10 =     0.37455932E+02
Kinetic eigenvalue #  11 =     0.23372275E+02
Kinetic eigenvalue #  12 =     0.38336693E+02
Kinetic eigenvalue #  13 =     0.38452615E+02
Kinetic eigenvalue #  14 =     0.24719402E+02
Kinetic eigenvalue #  15 =     0.13655755E+02
Kinetic eigenvalue #  16 =     0.14273376E+02
Kinetic eigenvalue #  17 =     0.77276904E+01
 Calculating the R matrix for the precon Sinv operator
 Diagonalising expanded subspace
 Copying updated data back
eigenvalue    1 init= -83.96     fin= -83.96     change= 0.2154E-08
eigenvalue    2 init= -53.14     fin= -53.14     change= 0.5191E-10
eigenvalue    3 init= -53.14     fin= -53.14     change= 0.4964E-10
eigenvalue    4 init= -52.98     fin= -52.98     change= 0.1382E-08
eigenvalue    5 init= -20.24     fin= -20.24     change= 0.2861E-05
eigenvalue    6 init= -7.715     fin= -7.715     change= 0.2033E-04
eigenvalue    7 init= -7.330     fin= -7.330     change= 0.3911E-05
eigenvalue    8 init= -7.329     fin= -7.329     change= 0.3963E-05
 Checking convergence criteria
 Diagonalising expanded subspace
 Copying updated data back
eigenvalue    1 init= -83.96     fin= -83.96     change= 0.2168E-08
eigenvalue    2 init= -53.14     fin= -53.14     change= 0.5213E-10
eigenvalue    3 init= -53.14     fin= -53.14     change= 0.4971E-10
eigenvalue    4 init= -52.98     fin= -52.98     change= 0.1467E-08
eigenvalue    5 init= -20.24     fin= -20.24     change= 0.3014E-05
eigenvalue    6 init= -7.715     fin= -7.715     change= 0.2168E-04
eigenvalue    7 init= -7.330     fin= -7.330     change= 0.4220E-05
eigenvalue    8 init= -7.329     fin= -7.329     change= 0.4264E-05
 Checking convergence criteria
 Diagonalising expanded subspace
 Copying updated data back
eigenvalue    9 init= -6.009     fin= -6.009     change= 0.9258E-07
eigenvalue   10 init= -5.842     fin= -5.842     change= 0.4407E-06
eigenvalue   11 init= -4.276     fin= -4.276     change= 0.1198E-04
eigenvalue   12 init= -3.705     fin= -3.705     change= 0.2712E-05
eigenvalue   13 init= -3.678     fin= -3.678     change= 0.4871E-05
eigenvalue   14 init= -1.808     fin= -1.808     change= 0.1109E-04
eigenvalue   15 init= 0.2985     fin= 0.2985     change= 0.2774E-06
eigenvalue   16 init= 0.4285     fin= 0.4285     change= 0.2415E-06
 Checking convergence criteria
 Diagonalising expanded subspace
 Copying updated data back
eigenvalue    9 init= -6.009     fin= -6.009     change= 0.9280E-07
eigenvalue   10 init= -5.842     fin= -5.842     change= 0.4525E-06
eigenvalue   11 init= -4.276     fin= -4.276     change= 0.1309E-04
eigenvalue   12 init= -3.705     fin= -3.705     change= 0.3024E-05
eigenvalue   13 init= -3.678     fin= -3.678     change= 0.5372E-05
eigenvalue   14 init= -1.808     fin= -1.808     change= 0.1246E-04
eigenvalue   15 init= 0.2985     fin= 0.2985     change= 0.3115E-06
eigenvalue   16 init= 0.4285     fin= 0.4285     change= 0.3127E-06
 Checking convergence criteria
 Diagonalising expanded subspace
 Copying updated data back
eigenvalue   17 init=  2.639     fin=  2.639     change= 0.5093E-06
 Checking convergence criteria
 no. bands in each block=           8
Kinetic eigenvalue #   1 =     0.38348960E+02
Kinetic eigenvalue #   2 =     0.39990472E+02
Kinetic eigenvalue #   3 =     0.39990660E+02
Kinetic eigenvalue #   4 =     0.39595175E+02
Kinetic eigenvalue #   5 =     0.25099043E+02
Kinetic eigenvalue #   6 =     0.42122289E+02
Kinetic eigenvalue #   7 =     0.37333012E+02
Kinetic eigenvalue #   8 =     0.37797753E+02
Kinetic eigenvalue #   9 =     0.37459155E+02
Kinetic eigenvalue #  10 =     0.37726085E+02
Kinetic eigenvalue #  11 =     0.20289011E+02
Kinetic eigenvalue #  12 =     0.37545438E+02
Kinetic eigenvalue #  13 =     0.41168603E+02
Kinetic eigenvalue #  14 =     0.25571076E+02
Kinetic eigenvalue #  15 =     0.13556085E+02
Kinetic eigenvalue #  16 =     0.80522571E+01
Kinetic eigenvalue #  17 =     0.17118951E+02
 Calculating the R matrix for the precon Sinv operator
 Diagonalising expanded subspace
 Copying updated data back
eigenvalue    1 init= -83.96     fin= -83.96     change= 0.2157E-08
eigenvalue    2 init= -53.14     fin= -53.14     change= 0.5023E-10
eigenvalue    3 init= -53.14     fin= -53.14     change= 0.4629E-10
eigenvalue    4 init= -52.98     fin= -52.98     change= 0.1256E-08
eigenvalue    5 init= -20.24     fin= -20.24     change= 0.2554E-05
eigenvalue    6 init= -7.719     fin= -7.719     change= 0.1832E-04
eigenvalue    7 init= -7.334     fin= -7.334     change= 0.4222E-05
eigenvalue    8 init= -7.299     fin= -7.299     change= 0.2210E-05
 Checking convergence criteria
 Diagonalising expanded subspace
 Copying updated data back
eigenvalue    1 init= -83.96     fin= -83.96     change= 0.2188E-08
eigenvalue    2 init= -53.14     fin= -53.14     change= 0.5047E-10
eigenvalue    3 init= -53.14     fin= -53.14     change= 0.4648E-10
eigenvalue    4 init= -52.98     fin= -52.98     change= 0.1333E-08
eigenvalue    5 init= -20.24     fin= -20.24     change= 0.2689E-05
eigenvalue    6 init= -7.719     fin= -7.719     change= 0.1955E-04
eigenvalue    7 init= -7.334     fin= -7.334     change= 0.4549E-05
eigenvalue    8 init= -7.299     fin= -7.299     change= 0.2346E-05
 Checking convergence criteria
 Diagonalising expanded subspace
 Copying updated data back
eigenvalue    9 init= -6.043     fin= -6.043     change= 0.1515E-06
eigenvalue   10 init= -5.822     fin= -5.822     change= 0.2983E-06
eigenvalue   11 init= -4.525     fin= -4.525     change= 0.9322E-05
eigenvalue   12 init= -3.725     fin= -3.725     change= 0.4060E-05
eigenvalue   13 init= -3.577     fin= -3.577     change= 0.1466E-05
eigenvalue   14 init= -2.002     fin= -2.002     change= 0.1069E-04
eigenvalue   15 init= -.6814E-01 fin= -.6814E-01 change= 0.2908E-06
eigenvalue   16 init=  2.021     fin=  2.021     change= 0.1209E-05
 Checking convergence criteria
 Diagonalising expanded subspace
 Copying updated data back
eigenvalue    9 init= -6.043     fin= -6.043     change= 0.1540E-06
eigenvalue   10 init= -5.822     fin= -5.822     change= 0.2991E-06
eigenvalue   11 init= -4.525     fin= -4.525     change= 0.1032E-04
eigenvalue   12 init= -3.725     fin= -3.725     change= 0.4541E-05
eigenvalue   13 init= -3.577     fin= -3.577     change= 0.1583E-05
eigenvalue   14 init= -2.002     fin= -2.002     change= 0.1219E-04
eigenvalue   15 init= -.6814E-01 fin= -.6814E-01 change= 0.3504E-06
eigenvalue   16 init=  2.021     fin=  2.021     change= 0.1648E-05
 Checking convergence criteria
 Diagonalising expanded subspace
 Copying updated data back
eigenvalue   17 init=  2.481     fin=  2.481     change= 0.9041E-07
 Checking convergence criteria
 no. bands in each block=           8
Kinetic eigenvalue #   1 =     0.37872827E+02
Kinetic eigenvalue #   2 =     0.39259389E+02
Kinetic eigenvalue #   3 =     0.39828255E+02
Kinetic eigenvalue #   4 =     0.39828260E+02
Kinetic eigenvalue #   5 =     0.25186723E+02
Kinetic eigenvalue #   6 =     0.43805622E+02
Kinetic eigenvalue #   7 =     0.37875739E+02
Kinetic eigenvalue #   8 =     0.37953623E+02
Kinetic eigenvalue #   9 =     0.36819316E+02
Kinetic eigenvalue #  10 =     0.32265673E+02
Kinetic eigenvalue #  11 =     0.22439585E+02
Kinetic eigenvalue #  12 =     0.36089903E+02
Kinetic eigenvalue #  13 =     0.36345366E+02
Kinetic eigenvalue #  14 =     0.23975481E+02
Kinetic eigenvalue #  15 =     0.13730900E+02
Kinetic eigenvalue #  16 =     0.14861435E+02
Kinetic eigenvalue #  17 =     0.80852684E+01
 Calculating the R matrix for the precon Sinv operator
 Diagonalising expanded subspace
 Copying updated data back
eigenvalue    1 init= -80.00     fin= -80.00     change= 0.1779E-08
eigenvalue    2 init= -49.54     fin= -49.54     change= 0.3915E-08
eigenvalue    3 init= -49.09     fin= -49.09     change= 0.5493E-10
eigenvalue    4 init= -49.09     fin= -49.09     change= 0.4979E-10
eigenvalue    5 init= -19.77     fin= -19.77     change= 0.4901E-05
eigenvalue    6 init= -6.667     fin= -6.667     change= 0.2250E-04
eigenvalue    7 init= -5.906     fin= -5.906     change= 0.3972E-05
eigenvalue    8 init= -5.904     fin= -5.904     change= 0.2385E-05
 Checking convergence criteria
 Diagonalising expanded subspace
 Copying updated data back
eigenvalue    1 init= -80.00     fin= -80.00     change= 0.1796E-08
eigenvalue    2 init= -49.54     fin= -49.54     change= 0.4109E-08
eigenvalue    3 init= -49.09     fin= -49.09     change= 0.5526E-10
eigenvalue    4 init= -49.09     fin= -49.09     change= 0.4999E-10
eigenvalue    5 init= -19.77     fin= -19.77     change= 0.5144E-05
eigenvalue    6 init= -6.667     fin= -6.667     change= 0.2387E-04
eigenvalue    7 init= -5.906     fin= -5.906     change= 0.4331E-05
eigenvalue    8 init= -5.904     fin= -5.904     change= 0.2554E-05
 Checking convergence criteria
 Diagonalising expanded subspace
 Copying updated data back
eigenvalue    9 init= -2.311     fin= -2.311     change= 0.3785E-05
eigenvalue   10 init= -2.189     fin= -2.189     change= 0.1920E-04
eigenvalue   11 init= -2.007     fin= -2.007     change= 0.3553E-04
eigenvalue   12 init= -1.244     fin= -1.244     change= 0.6193E-05
eigenvalue   13 init= -1.214     fin= -1.214     change= 0.2231E-04
eigenvalue   14 init= -.2621     fin= -.2621     change= 0.3734E-04
eigenvalue   15 init=  1.608     fin=  1.608     change= 0.4406E-06
eigenvalue   16 init=  1.839     fin=  1.839     change= 0.3725E-06
 Checking convergence criteria
 Diagonalising expanded subspace
 Copying updated data back
eigenvalue    9 init= -2.311     fin= -2.311     change= 0.3974E-05
eigenvalue   10 init= -2.189     fin= -2.189     change= 0.2092E-04
eigenvalue   11 init= -2.007     fin= -2.007     change= 0.3906E-04
eigenvalue   12 init= -1.244     fin= -1.244     change= 0.7059E-05
eigenvalue   13 init= -1.214     fin= -1.214     change= 0.2487E-04
eigenvalue   14 init= -.2621     fin= -.2621     change= 0.4198E-04
eigenvalue   15 init=  1.608     fin=  1.608     change= 0.4997E-06
eigenvalue   16 init=  1.839     fin=  1.839     change= 0.4565E-06
 Checking convergence criteria
 Diagonalising expanded subspace
 Copying updated data back
eigenvalue   17 init=  3.130     fin=  3.130     change= 0.1889E-05
 Checking convergence criteria
 Diagonalising expanded subspace
 Copying updated data back
eigenvalue   17 init=  3.130     fin=  3.130     change= 0.3795E-05
 Checking convergence criteria
 Diagonalising expanded subspace
 Copying updated data back
eigenvalue   17 init=  3.130     fin=  3.130     change= 0.4714E-05
 Checking convergence criteria
 no. bands in each block=           8
Kinetic eigenvalue #   1 =     0.37872752E+02
Kinetic eigenvalue #   2 =     0.39259377E+02
Kinetic eigenvalue #   3 =     0.39828243E+02
Kinetic eigenvalue #   4 =     0.39828505E+02
Kinetic eigenvalue #   5 =     0.25173050E+02
Kinetic eigenvalue #   6 =     0.43723010E+02
Kinetic eigenvalue #   7 =     0.37749840E+02
Kinetic eigenvalue #   8 =     0.38728885E+02
Kinetic eigenvalue #   9 =     0.19304159E+02
Kinetic eigenvalue #  10 =     0.31832881E+02
Kinetic eigenvalue #  11 =     0.36757792E+02
Kinetic eigenvalue #  12 =     0.34455454E+02
Kinetic eigenvalue #  13 =     0.39782238E+02
Kinetic eigenvalue #  14 =     0.24529100E+02
Kinetic eigenvalue #  15 =     0.14893019E+02
Kinetic eigenvalue #  16 =     0.89241411E+01
Kinetic eigenvalue #  17 =     0.16019077E+02
 Calculating the R matrix for the precon Sinv operator
 Diagonalising expanded subspace
 Copying updated data back
eigenvalue    1 init= -80.00     fin= -80.00     change= 0.1815E-08
eigenvalue    2 init= -49.54     fin= -49.54     change= 0.3910E-08
eigenvalue    3 init= -49.09     fin= -49.09     change= 0.5179E-10
eigenvalue    4 init= -49.09     fin= -49.09     change= 0.4237E-10
eigenvalue    5 init= -19.77     fin= -19.77     change= 0.4909E-05
eigenvalue    6 init= -6.671     fin= -6.671     change= 0.2297E-04
eigenvalue    7 init= -5.914     fin= -5.914     change= 0.3059E-05
eigenvalue    8 init= -5.849     fin= -5.849     change= 0.1806E-05
 Checking convergence criteria
 Diagonalising expanded subspace
 Copying updated data back
eigenvalue    1 init= -80.00     fin= -80.00     change= 0.1828E-08
eigenvalue    2 init= -49.54     fin= -49.54     change= 0.4105E-08
eigenvalue    3 init= -49.09     fin= -49.09     change= 0.5201E-10
eigenvalue    4 init= -49.09     fin= -49.09     change= 0.4246E-10
eigenvalue    5 init= -19.77     fin= -19.77     change= 0.5190E-05
eigenvalue    6 init= -6.671     fin= -6.671     change= 0.2489E-04
eigenvalue    7 init= -5.914     fin= -5.914     change= 0.3261E-05
eigenvalue    8 init= -5.849     fin= -5.849     change= 0.1890E-05
 Checking convergence criteria
 Diagonalising expanded subspace
 Copying updated data back
eigenvalue    9 init= -2.513     fin= -2.513     change= 0.2550E-04
eigenvalue   10 init= -2.257     fin= -2.257     change= 0.1515E-04
eigenvalue   11 init= -2.130     fin= -2.130     change= 0.9961E-05
eigenvalue   12 init= -1.282     fin= -1.282     change= 0.1449E-04
eigenvalue   13 init= -1.100     fin= -1.100     change= 0.4696E-05
eigenvalue   14 init= -.4653     fin= -.4654     change= 0.4617E-04
eigenvalue   15 init=  1.213     fin=  1.213     change= 0.7762E-06
eigenvalue   16 init=  2.530     fin=  2.530     change= 0.7230E-05
 Checking convergence criteria
 Diagonalising expanded subspace
 Copying updated data back
eigenvalue    9 init= -2.513     fin= -2.513     change= 0.2804E-04
eigenvalue   10 init= -2.257     fin= -2.257     change= 0.1665E-04
eigenvalue   11 init= -2.130     fin= -2.130     change= 0.1049E-04
eigenvalue   12 init= -1.282     fin= -1.282     change= 0.1640E-04
eigenvalue   13 init= -1.100     fin= -1.100     change= 0.5042E-05
eigenvalue   14 init= -.4653     fin= -.4654     change= 0.5322E-04
eigenvalue   15 init=  1.213     fin=  1.213     change= 0.9351E-06
eigenvalue   16 init=  2.530     fin=  2.530     change= 0.9473E-05
 Checking convergence criteria
 Diagonalising expanded subspace
 Copying updated data back
eigenvalue    9 init= -2.513     fin= -2.513     change= 0.2812E-04
eigenvalue   10 init= -2.257     fin= -2.257     change= 0.1669E-04
eigenvalue   11 init= -2.130     fin= -2.130     change= 0.1049E-04
eigenvalue   12 init= -1.282     fin= -1.282     change= 0.1646E-04
eigenvalue   13 init= -1.100     fin= -1.100     change= 0.5043E-05
eigenvalue   14 init= -.4653     fin= -.4654     change= 0.5365E-04
eigenvalue   15 init=  1.213     fin=  1.213     change= 0.9392E-06
eigenvalue   16 init=  2.530     fin=  2.530     change= 0.9862E-05
 Checking convergence criteria
 Diagonalising expanded subspace
 Copying updated data back
eigenvalue   17 init=  4.239     fin=  4.239     change= 0.2477E-06
 Checking convergence criteria
 no. bands in each block=           8
Kinetic eigenvalue #   1 =     0.37872751E+02
Kinetic eigenvalue #   2 =     0.39259377E+02
Kinetic eigenvalue #   3 =     0.39828243E+02
Kinetic eigenvalue #   4 =     0.39828505E+02
Kinetic eigenvalue #   5 =     0.25173050E+02
Kinetic eigenvalue #   6 =     0.43723008E+02
Kinetic eigenvalue #   7 =     0.37749840E+02
Kinetic eigenvalue #   8 =     0.38728884E+02
Kinetic eigenvalue #   9 =     0.19304442E+02
Kinetic eigenvalue #  10 =     0.31832881E+02
Kinetic eigenvalue #  11 =     0.36757791E+02
Kinetic eigenvalue #  12 =     0.34455446E+02
Kinetic eigenvalue #  13 =     0.39782223E+02
Kinetic eigenvalue #  14 =     0.24529668E+02
Kinetic eigenvalue #  15 =     0.14893033E+02
Kinetic eigenvalue #  16 =     0.89240129E+01
Kinetic eigenvalue #  17 =     0.16026346E+02
 Calculating the R matrix for the precon Sinv operator
 Diagonalising expanded subspace
 Copying updated data back
eigenvalue    1 init= -80.00     fin= -80.00     change= 0.1819E-08
eigenvalue    2 init= -49.54     fin= -49.54     change= 0.3913E-08
eigenvalue    3 init= -49.09     fin= -49.09     change= 0.5181E-10
eigenvalue    4 init= -49.09     fin= -49.09     change= 0.4228E-10
eigenvalue    5 init= -19.77     fin= -19.77     change= 0.4910E-05
eigenvalue    6 init= -6.671     fin= -6.671     change= 0.2298E-04
eigenvalue    7 init= -5.914     fin= -5.914     change= 0.3060E-05
eigenvalue    8 init= -5.849     fin= -5.849     change= 0.1794E-05
 Checking convergence criteria
 Diagonalising expanded subspace
 Copying updated data back
eigenvalue    1 init= -80.00     fin= -80.00     change= 0.1831E-08
eigenvalue    2 init= -49.54     fin= -49.54     change= 0.4107E-08
eigenvalue    3 init= -49.09     fin= -49.09     change= 0.5203E-10
eigenvalue    4 init= -49.09     fin= -49.09     change= 0.4239E-10
eigenvalue    5 init= -19.77     fin= -19.77     change= 0.5192E-05
eigenvalue    6 init= -6.671     fin= -6.671     change= 0.2490E-04
eigenvalue    7 init= -5.914     fin= -5.914     change= 0.3261E-05
eigenvalue    8 init= -5.849     fin= -5.849     change= 0.1876E-05
 Checking convergence criteria
 Diagonalising expanded subspace
 Copying updated data back
eigenvalue    9 init= -2.513     fin= -2.513     change= 0.2561E-04
eigenvalue   10 init= -2.257     fin= -2.257     change= 0.1531E-04
eigenvalue   11 init= -2.130     fin= -2.130     change= 0.9958E-05
eigenvalue   12 init= -1.282     fin= -1.282     change= 0.1453E-04
eigenvalue   13 init= -1.100     fin= -1.100     change= 0.4662E-05
eigenvalue   14 init= -.4653     fin= -.4654     change= 0.4562E-04
eigenvalue   15 init=  1.213     fin=  1.213     change= 0.8070E-06
eigenvalue   16 init=  2.530     fin=  2.530     change= 0.7242E-05
 Checking convergence criteria
 Diagonalising expanded subspace
 Copying updated data back
eigenvalue    9 init= -2.513     fin= -2.513     change= 0.2813E-04
eigenvalue   10 init= -2.257     fin= -2.257     change= 0.1681E-04
eigenvalue   11 init= -2.130     fin= -2.130     change= 0.1049E-04
eigenvalue   12 init= -1.282     fin= -1.282     change= 0.1643E-04
eigenvalue   13 init= -1.100     fin= -1.100     change= 0.5004E-05
eigenvalue   14 init= -.4653     fin= -.4654     change= 0.5237E-04
eigenvalue   15 init=  1.213     fin=  1.213     change= 0.9778E-06
eigenvalue   16 init=  2.530     fin=  2.530     change= 0.9399E-05
 Checking convergence criteria
 Diagonalising expanded subspace
 Copying updated data back
eigenvalue   17 init=  4.239     fin=  4.239     change= 0.1585E-06
 Checking convergence criteria
 no. bands in each block=           8
Kinetic eigenvalue #   1 =     0.37872810E+02
Kinetic eigenvalue #   2 =     0.39259389E+02
Kinetic eigenvalue #   3 =     0.39828255E+02
Kinetic eigenvalue #   4 =     0.39828260E+02
Kinetic eigenvalue #   5 =     0.25186721E+02
Kinetic eigenvalue #   6 =     0.43805574E+02
Kinetic eigenvalue #   7 =     0.37875726E+02
Kinetic eigenvalue #   8 =     0.37953623E+02
Kinetic eigenvalue #   9 =     0.36819317E+02
Kinetic eigenvalue #  10 =     0.32265597E+02
Kinetic eigenvalue #  11 =     0.22439552E+02
Kinetic eigenvalue #  12 =     0.36089907E+02
Kinetic eigenvalue #  13 =     0.36345377E+02
Kinetic eigenvalue #  14 =     0.23975518E+02
Kinetic eigenvalue #  15 =     0.13729851E+02
Kinetic eigenvalue #  16 =     0.14861414E+02
Kinetic eigenvalue #  17 =     0.80823873E+01
 Calculating the R matrix for the precon Sinv operator
 Diagonalising expanded subspace
 Copying updated data back
eigenvalue    1 init= -80.00     fin= -80.00     change= 0.1840E-08
eigenvalue    2 init= -49.54     fin= -49.54     change= 0.3902E-08
eigenvalue    3 init= -49.09     fin= -49.09     change= 0.5487E-10
eigenvalue    4 init= -49.09     fin= -49.09     change= 0.4970E-10
eigenvalue    5 init= -19.77     fin= -19.77     change= 0.4881E-05
eigenvalue    6 init= -6.667     fin= -6.667     change= 0.2230E-04
eigenvalue    7 init= -5.906     fin= -5.906     change= 0.3973E-05
eigenvalue    8 init= -5.904     fin= -5.904     change= 0.2386E-05
 Checking convergence criteria
 Diagonalising expanded subspace
 Copying updated data back
eigenvalue    1 init= -80.00     fin= -80.00     change= 0.1858E-08
eigenvalue    2 init= -49.54     fin= -49.54     change= 0.4100E-08
eigenvalue    3 init= -49.09     fin= -49.09     change= 0.5524E-10
eigenvalue    4 init= -49.09     fin= -49.09     change= 0.4988E-10
eigenvalue    5 init= -19.77     fin= -19.77     change= 0.5138E-05
eigenvalue    6 init= -6.667     fin= -6.667     change= 0.2373E-04
eigenvalue    7 init= -5.906     fin= -5.906     change= 0.4333E-05
eigenvalue    8 init= -5.904     fin= -5.904     change= 0.2554E-05
 Checking convergence criteria
 Diagonalising expanded subspace
 Copying updated data back
eigenvalue    9 init= -2.311     fin= -2.311     change= 0.3784E-05
eigenvalue   10 init= -2.189     fin= -2.189     change= 0.1931E-04
eigenvalue   11 init= -2.007     fin= -2.007     change= 0.3572E-04
eigenvalue   12 init= -1.244     fin= -1.244     change= 0.6186E-05
eigenvalue   13 init= -1.214     fin= -1.214     change= 0.2224E-04
eigenvalue   14 init= -.2621     fin= -.2621     change= 0.3739E-04
eigenvalue   15 init=  1.608     fin=  1.608     change= 0.3851E-06
eigenvalue   16 init=  1.839     fin=  1.839     change= 0.3734E-06
 Checking convergence criteria
 Diagonalising expanded subspace
 Copying updated data back
eigenvalue    9 init= -2.311     fin= -2.311     change= 0.3973E-05
eigenvalue   10 init= -2.189     fin= -2.189     change= 0.2104E-04
eigenvalue   11 init= -2.007     fin= -2.007     change= 0.3910E-04
eigenvalue   12 init= -1.244     fin= -1.244     change= 0.7054E-05
eigenvalue   13 init= -1.214     fin= -1.214     change= 0.2483E-04
eigenvalue   14 init= -.2621     fin= -.2621     change= 0.4192E-04
eigenvalue   15 init=  1.608     fin=  1.608     change= 0.4190E-06
eigenvalue   16 init=  1.839     fin=  1.839     change= 0.4593E-06
 Checking convergence criteria
 Diagonalising expanded subspace
 Copying updated data back
eigenvalue   17 init=  3.130     fin=  3.130     change= 0.1718E-05
 Checking convergence criteria
 Diagonalising expanded subspace
 Copying updated data back
eigenvalue   17 init=  3.130     fin=  3.130     change= 0.4719E-05
 Checking convergence criteria
 Diagonalising expanded subspace
 Copying updated data back
eigenvalue   17 init=  3.130     fin=  3.130     change= 0.6056E-05
 Checking convergence criteria
 Diagonalising expanded subspace
 Copying updated data back
eigenvalue   17 init=  3.130     fin=  3.130     change= 0.6787E-05
 Checking convergence criteria
 no. bands in each block=           8
Kinetic eigenvalue #   1 =     0.37872752E+02
Kinetic eigenvalue #   2 =     0.39259377E+02
Kinetic eigenvalue #   3 =     0.39828243E+02
Kinetic eigenvalue #   4 =     0.39828505E+02
Kinetic eigenvalue #   5 =     0.25173050E+02
Kinetic eigenvalue #   6 =     0.43723007E+02
Kinetic eigenvalue #   7 =     0.37749840E+02
Kinetic eigenvalue #   8 =     0.38728886E+02
Kinetic eigenvalue #   9 =     0.19304417E+02
Kinetic eigenvalue #  10 =     0.31832909E+02
Kinetic eigenvalue #  11 =     0.36757792E+02
Kinetic eigenvalue #  12 =     0.34455431E+02
Kinetic eigenvalue #  13 =     0.39782232E+02
Kinetic eigenvalue #  14 =     0.24529650E+02
Kinetic eigenvalue #  15 =     0.14893062E+02
Kinetic eigenvalue #  16 =     0.89240042E+01
Kinetic eigenvalue #  17 =     0.16012492E+02
 Calculating the R matrix for the precon Sinv operator
 Diagonalising expanded subspace
 Copying updated data back
eigenvalue    1 init= -80.00     fin= -80.00     change= 0.1813E-08
eigenvalue    2 init= -49.54     fin= -49.54     change= 0.3910E-08
eigenvalue    3 init= -49.09     fin= -49.09     change= 0.5211E-10
eigenvalue    4 init= -49.09     fin= -49.09     change= 0.4235E-10
eigenvalue    5 init= -19.77     fin= -19.77     change= 0.4908E-05
eigenvalue    6 init= -6.671     fin= -6.671     change= 0.2296E-04
eigenvalue    7 init= -5.914     fin= -5.914     change= 0.3058E-05
eigenvalue    8 init= -5.849     fin= -5.849     change= 0.1816E-05
 Checking convergence criteria
 Diagonalising expanded subspace
 Copying updated data back
eigenvalue    1 init= -80.00     fin= -80.00     change= 0.1825E-08
eigenvalue    2 init= -49.54     fin= -49.54     change= 0.4104E-08
eigenvalue    3 init= -49.09     fin= -49.09     change= 0.5237E-10
eigenvalue    4 init= -49.09     fin= -49.09     change= 0.4244E-10
eigenvalue    5 init= -19.77     fin= -19.77     change= 0.5189E-05
eigenvalue    6 init= -6.671     fin= -6.671     change= 0.2488E-04
eigenvalue    7 init= -5.914     fin= -5.914     change= 0.3259E-05
eigenvalue    8 init= -5.849     fin= -5.849     change= 0.1901E-05
 Checking convergence criteria
 Diagonalising expanded subspace
 Copying updated data back
eigenvalue    9 init= -2.513     fin= -2.513     change= 0.2553E-04
eigenvalue   10 init= -2.257     fin= -2.257     change= 0.1530E-04
eigenvalue   11 init= -2.130     fin= -2.130     change= 0.9962E-05
eigenvalue   12 init= -1.282     fin= -1.282     change= 0.1448E-04
eigenvalue   13 init= -1.100     fin= -1.100     change= 0.4726E-05
eigenvalue   14 init= -.4653     fin= -.4654     change= 0.4550E-04
eigenvalue   15 init=  1.213     fin=  1.213     change= 0.8025E-06
eigenvalue   16 init=  2.530     fin=  2.530     change= 0.7252E-05
 Checking convergence criteria
 Diagonalising expanded subspace
 Copying updated data back
eigenvalue    9 init= -2.513     fin= -2.513     change= 0.2809E-04
eigenvalue   10 init= -2.257     fin= -2.257     change= 0.1681E-04
eigenvalue   11 init= -2.130     fin= -2.130     change= 0.1049E-04
eigenvalue   12 init= -1.282     fin= -1.282     change= 0.1642E-04
eigenvalue   13 init= -1.100     fin= -1.100     change= 0.5090E-05
eigenvalue   14 init= -.4653     fin= -.4654     change= 0.5238E-04
eigenvalue   15 init=  1.213     fin=  1.213     change= 0.9720E-06
eigenvalue   16 init=  2.530     fin=  2.530     change= 0.9424E-05
 Checking convergence criteria
 Diagonalising expanded subspace
 Copying updated data back
eigenvalue   17 init=  4.239     fin=  4.239     change= 0.3116E-06
 Checking convergence criteria
(Entering electronic_find_fermi_fix)
Smearing occupancies with Gaussians
Spin: 1, Min eigenvalue: -8.4755E+001 eV, Max eigenvalue:  3.4391E+000 eV
Fermi energy for up electrons = -3.1743E+000 eV [lower bound; range =  1.96E-014 eV]
Spin: 2, Min eigenvalue: -8.0796E+001 eV, Max eigenvalue:  5.0387E+000 eV
Fermi energy for down electrons = -3.1498E+000 eV [lower bound; range =  1.91E-014 eV]
(Leaving electronic_find_fermi_fix)
NB material has an apparent band gap of  1.3913E+000eV for spin up electrons.
NB material has an apparent band gap of  3.3363E+000eV for spin down electrons.
Calculating KE and non-local eigenvalues to find total energy
 
End of SCF cycle energies
Exchange-correlation energy      =      -499.07913191541501874 eV
+Hartree energy                  =      2055.86480228865912068 eV
+Local pseudopotential energy    =     -5072.04198973965321784 eV
----------------------------------
Potential energy (total)         =     -3516.66581603566692138 eV
                                  
+Hubbard U energy                =        -0.95999999999999996 eV
+Kinetic energy                  =       777.08338738619318065 eV
+Non-local energy                =       153.30851328243431908 eV
+Electronic entropy term (-TS)   =        -0.00123660667142524 eV
+Ewald energy (const)            =      -774.85607651874397561 eV
+non-Coulombic energy (const)    =        13.80612138473854067 eV
----------------------------------
Total free energy (E-TS)         =     -3348.28510710771524828 eV
 
NB est. 0K energy (E-0.5TS)      =     -3348.28448880437917978 eV
 
(XC correction to eigenvalue sum =        44.01690523340165129 eV)
(Hubbard U correction to eigenvalu         0.00000003000000000 eV)
 
      1  -3.34828511E+003 -3.16495594E+000  -2.02565816E-002      15.58  <-- SCF
 Calculate new overlap and Hubbard U matrix
 Density matrix in cubic harmonics:
     1.0000     0.0000     0.0000     0.0000     0.0000
     0.0000     0.0000     0.0000     0.0000     0.0000
     0.0000     0.0000     0.0000     0.0000     0.0000
     0.0000     0.0000     0.0000     0.0000     0.0000
     0.0000     0.0000     0.0000     0.0000     0.0000
     0.0000     0.0000     0.0000     0.0000     0.0000
     0.0000     0.0000     0.0000     1.0000     0.0000
     0.0000     0.0000     0.0000     0.0000     0.0000
     0.0000     0.0000     0.0000     0.0000     1.0000
     0.0000     0.0000     0.0000     0.0000     0.0000
 Hermiticity:        (-4.44089209850062616E-016,0.0000000000000000)
 Density matrix in cubic harmonics:
     1.0000     0.0000     0.0000     0.0000     0.0000
     0.0000     0.0000     0.0000     0.0000     0.0000
     0.0000     0.0000     0.0000     0.0000     0.0000
     0.0000     0.0000     0.0000     0.0000     0.0000
     0.0000     0.0000     0.0000     0.0000     0.0000
     0.0000     0.0000     0.0000     0.0000     0.0000
     0.0000     0.0000     0.0000     1.0000     0.0000
     0.0000     0.0000     0.0000     0.0000     0.0000
     0.0000     0.0000     0.0000     0.0000     1.0000
     0.0000     0.0000     0.0000     0.0000     0.0000
 Hermiticity:        (-4.44089209850062616E-016,0.0000000000000000)
 Density matrix in cubic harmonics:
     0.9472    -0.0000     0.0000     0.0910     0.0000
     0.0000     0.0000     0.0000     0.0000     0.0000
    -0.0000     0.9997     0.0000     0.0000     0.0000
     0.0000     0.0000     0.0000     0.0000     0.0000
     0.0000     0.0000     0.9798    -0.0000     0.0000
     0.0000     0.0000     0.0000     0.0000     0.0000
     0.0910     0.0000    -0.0000     0.8421    -0.0000
     0.0000     0.0000     0.0000     0.0000     0.0000
     0.0000     0.0000     0.0000    -0.0000     0.9798
     0.0000     0.0000     0.0000     0.0000     0.0000
 Hermiticity:              (0.20620286741807503,0.0000000000000000)
 Density matrix in cubic harmonics:
     0.0892    -0.0000     0.0000    -0.1544     0.0000
     0.0000     0.0000     0.0000     0.0000     0.0000
    -0.0000     0.0000     0.0000     0.0000     0.0000
     0.0000     0.0000     0.0000     0.0000     0.0000
     0.0000     0.0000     0.3330    -0.0000     0.0000
     0.0000     0.0000     0.0000     0.0000     0.0000
    -0.1544     0.0000    -0.0000     0.2676    -0.0000
     0.0000     0.0000     0.0000     0.0000     0.0000
     0.0000     0.0000     0.0000    -0.0000     0.3330
     0.0000     0.0000     0.0000     0.0000     0.0000
 Hermiticity:              (0.67379883475020996,0.0000000000000000)
  Hubbard energy diff=   3.6548910572165728E-002 eV <-- Hubbard_U
  ----------- Hubbard U: New occupation matrix calculated: --------------------
 -0.92345108942783427      eV <= Edirect

     Hubbard U occupation numbers
     ----------------------------
Species   Ion   l  spin               occupancies
==================================================================
  Mn       1    2   up:   0.79  0.98  0.98  1.00  1.00
                    dn:   0.00  0.00  0.33  0.33  0.36
==================================================================

 Only the high frequencies of the density were mixed in this cycle 
Symmetrising density
Calculating local potential
Calculating Hubbard U potential
 Density matrix in cubic harmonics:
     1.0000     0.0000     0.0000     0.0000     0.0000
     0.0000     0.0000     0.0000     0.0000     0.0000
     0.0000     0.0000     0.0000     0.0000     0.0000
     0.0000     0.0000     0.0000     0.0000     0.0000
     0.0000     0.0000     0.0000     0.0000     0.0000
     0.0000     0.0000     0.0000     0.0000     0.0000
     0.0000     0.0000     0.0000     1.0000     0.0000
     0.0000     0.0000     0.0000     0.0000     0.0000
     0.0000     0.0000     0.0000     0.0000     1.0000
     0.0000     0.0000     0.0000     0.0000     0.0000
 Hermiticity:        (-4.44089209850062616E-016,0.0000000000000000)
 Density matrix in cubic harmonics:
     1.0000     0.0000     0.0000     0.0000     0.0000
     0.0000     0.0000     0.0000     0.0000     0.0000
     0.0000     0.0000     0.0000     0.0000     0.0000
     0.0000     0.0000     0.0000     0.0000     0.0000
     0.0000     0.0000     0.0000     0.0000     0.0000
     0.0000     0.0000     0.0000     0.0000     0.0000
     0.0000     0.0000     0.0000     1.0000     0.0000
     0.0000     0.0000     0.0000     0.0000     0.0000
     0.0000     0.0000     0.0000     0.0000     1.0000
     0.0000     0.0000     0.0000     0.0000     0.0000
 Hermiticity:        (-4.44089209850062616E-016,0.0000000000000000)
Calculating non-local weights
Starting SCF cycle     2 of up to    30
 no. bands in each block=           8
Kinetic eigenvalue #   1 =     0.38349114E+02
Kinetic eigenvalue #   2 =     0.39990488E+02
Kinetic eigenvalue #   3 =     0.39990491E+02
Kinetic eigenvalue #   4 =     0.39595121E+02
Kinetic eigenvalue #   5 =     0.25128914E+02
Kinetic eigenvalue #   6 =     0.42058234E+02
Kinetic eigenvalue #   7 =     0.37332753E+02
Kinetic eigenvalue #   8 =     0.37350241E+02
Kinetic eigenvalue #   9 =     0.37902185E+02
Kinetic eigenvalue #  10 =     0.37459537E+02
Kinetic eigenvalue #  11 =     0.23758981E+02
Kinetic eigenvalue #  12 =     0.38469549E+02
Kinetic eigenvalue #  13 =     0.38576199E+02
Kinetic eigenvalue #  14 =     0.24503168E+02
Kinetic eigenvalue #  15 =     0.13591210E+02
Kinetic eigenvalue #  16 =     0.14202334E+02
Kinetic eigenvalue #  17 =     0.77105181E+01
 Diagonalising expanded subspace
 Copying updated data back
eigenvalue    1 init= -83.96     fin= -83.96     change= 0.1357E-08
eigenvalue    2 init= -53.14     fin= -53.14     change= 0.1375E-10
eigenvalue    3 init= -53.14     fin= -53.14     change= 0.1323E-10
eigenvalue    4 init= -52.98     fin= -52.98     change= 0.1285E-10
eigenvalue    5 init= -20.24     fin= -20.24     change= 0.1434E-07
eigenvalue    6 init= -7.715     fin= -7.715     change= 0.1758E-06
eigenvalue    7 init= -7.330     fin= -7.330     change= 0.3229E-07
eigenvalue    8 init= -7.329     fin= -7.329     change= 0.4309E-07
 Checking convergence criteria
 Diagonalising expanded subspace
 Copying updated data back
eigenvalue    9 init= -6.009     fin= -6.009     change= 0.4283E-08
eigenvalue   10 init= -5.842     fin= -5.842     change= 0.2858E-07
eigenvalue   11 init= -4.276     fin= -4.276     change= 0.1625E-06
eigenvalue   12 init= -3.705     fin= -3.705     change= 0.2147E-07
eigenvalue   13 init= -3.678     fin= -3.678     change= 0.5969E-07
eigenvalue   14 init= -1.808     fin= -1.808     change= 0.2785E-06
eigenvalue   15 init= 0.2985     fin= 0.2985     change= 0.2725E-07
eigenvalue   16 init= 0.4285     fin= 0.4285     change= 0.1925E-07
 Checking convergence criteria
 Diagonalising expanded subspace
 Copying updated data back
eigenvalue   17 init=  2.639     fin=  2.639     change= 0.2115E-06
 Checking convergence criteria
 no. bands in each block=           8
Kinetic eigenvalue #   1 =     0.38349092E+02
Kinetic eigenvalue #   2 =     0.39990479E+02
Kinetic eigenvalue #   3 =     0.39990669E+02
Kinetic eigenvalue #   4 =     0.39595113E+02
Kinetic eigenvalue #   5 =     0.25115800E+02
Kinetic eigenvalue #   6 =     0.41989835E+02
Kinetic eigenvalue #   7 =     0.37276463E+02
Kinetic eigenvalue #   8 =     0.37719719E+02
Kinetic eigenvalue #   9 =     0.37475087E+02
Kinetic eigenvalue #  10 =     0.37727495E+02
Kinetic eigenvalue #  11 =     0.20657698E+02
Kinetic eigenvalue #  12 =     0.37692525E+02
Kinetic eigenvalue #  13 =     0.41271914E+02
Kinetic eigenvalue #  14 =     0.25374122E+02
Kinetic eigenvalue #  15 =     0.13467571E+02
Kinetic eigenvalue #  16 =     0.80170944E+01
Kinetic eigenvalue #  17 =     0.17093125E+02
 Diagonalising expanded subspace
 Copying updated data back
eigenvalue    1 init= -83.96     fin= -83.96     change= 0.1434E-08
eigenvalue    2 init= -53.14     fin= -53.14     change= 0.1332E-10
eigenvalue    3 init= -53.14     fin= -53.14     change= 0.1335E-10
eigenvalue    4 init= -52.98     fin= -52.98     change= 0.1093E-10
eigenvalue    5 init= -20.24     fin= -20.24     change= 0.1076E-07
eigenvalue    6 init= -7.719     fin= -7.719     change= 0.1258E-06
eigenvalue    7 init= -7.334     fin= -7.334     change= 0.4726E-07
eigenvalue    8 init= -7.299     fin= -7.299     change= 0.2021E-07
 Checking convergence criteria
 Diagonalising expanded subspace
 Copying updated data back
eigenvalue    9 init= -6.043     fin= -6.043     change= 0.1021E-07
eigenvalue   10 init= -5.822     fin= -5.822     change= 0.2182E-07
eigenvalue   11 init= -4.525     fin= -4.525     change= 0.1252E-06
eigenvalue   12 init= -3.725     fin= -3.725     change= 0.7744E-07
eigenvalue   13 init= -3.577     fin= -3.577     change= 0.2077E-07
eigenvalue   14 init= -2.002     fin= -2.002     change= 0.2667E-06
eigenvalue   15 init= -.6814E-01 fin= -.6814E-01 change= 0.2230E-07
eigenvalue   16 init=  2.021     fin=  2.021     change= 0.1560E-06
 Checking convergence criteria
 Diagonalising expanded subspace
 Copying updated data back
eigenvalue   17 init=  2.481     fin=  2.481     change= 0.2371E-07
 Checking convergence criteria
 no. bands in each block=           8
Kinetic eigenvalue #   1 =     0.38349102E+02
Kinetic eigenvalue #   2 =     0.39990479E+02
Kinetic eigenvalue #   3 =     0.39990669E+02
Kinetic eigenvalue #   4 =     0.39595113E+02
Kinetic eigenvalue #   5 =     0.25115806E+02
Kinetic eigenvalue #   6 =     0.41989869E+02
Kinetic eigenvalue #   7 =     0.37276477E+02
Kinetic eigenvalue #   8 =     0.37719732E+02
Kinetic eigenvalue #   9 =     0.37475097E+02
Kinetic eigenvalue #  10 =     0.37727494E+02
Kinetic eigenvalue #  11 =     0.20657659E+02
Kinetic eigenvalue #  12 =     0.37692470E+02
Kinetic eigenvalue #  13 =     0.41271888E+02
Kinetic eigenvalue #  14 =     0.25374122E+02
Kinetic eigenvalue #  15 =     0.13467546E+02
Kinetic eigenvalue #  16 =     0.80169025E+01
Kinetic eigenvalue #  17 =     0.17092382E+02
 Diagonalising expanded subspace
 Copying updated data back
eigenvalue    1 init= -83.96     fin= -83.96     change= 0.1363E-08
eigenvalue    2 init= -53.14     fin= -53.14     change= 0.1324E-10
eigenvalue    3 init= -53.14     fin= -53.14     change= 0.1334E-10
eigenvalue    4 init= -52.98     fin= -52.98     change= 0.1089E-10
eigenvalue    5 init= -20.24     fin= -20.24     change= 0.1030E-07
eigenvalue    6 init= -7.719     fin= -7.719     change= 0.1181E-06
eigenvalue    7 init= -7.334     fin= -7.334     change= 0.4836E-07
eigenvalue    8 init= -7.299     fin= -7.299     change= 0.2095E-07
 Checking convergence criteria
 Diagonalising expanded subspace
 Copying updated data back
eigenvalue    9 init= -6.043     fin= -6.043     change= 0.9879E-08
eigenvalue   10 init= -5.822     fin= -5.822     change= 0.2186E-07
eigenvalue   11 init= -4.525     fin= -4.525     change= 0.1340E-06
eigenvalue   12 init= -3.725     fin= -3.725     change= 0.8191E-07
eigenvalue   13 init= -3.577     fin= -3.577     change= 0.2193E-07
eigenvalue   14 init= -2.002     fin= -2.002     change= 0.2750E-06
eigenvalue   15 init= -.6814E-01 fin= -.6814E-01 change= 0.2364E-07
eigenvalue   16 init=  2.021     fin=  2.021     change= 0.1404E-06
 Checking convergence criteria
 Diagonalising expanded subspace
 Copying updated data back
eigenvalue   17 init=  2.481     fin=  2.481     change= 0.7253E-07
 Checking convergence criteria
 no. bands in each block=           8
Kinetic eigenvalue #   1 =     0.38349118E+02
Kinetic eigenvalue #   2 =     0.39990488E+02
Kinetic eigenvalue #   3 =     0.39990491E+02
Kinetic eigenvalue #   4 =     0.39595121E+02
Kinetic eigenvalue #   5 =     0.25128936E+02
Kinetic eigenvalue #   6 =     0.42058210E+02
Kinetic eigenvalue #   7 =     0.37332763E+02
Kinetic eigenvalue #   8 =     0.37350245E+02
Kinetic eigenvalue #   9 =     0.37902185E+02
Kinetic eigenvalue #  10 =     0.37459534E+02
Kinetic eigenvalue #  11 =     0.23759069E+02
Kinetic eigenvalue #  12 =     0.38469549E+02
Kinetic eigenvalue #  13 =     0.38576183E+02
Kinetic eigenvalue #  14 =     0.24503448E+02
Kinetic eigenvalue #  15 =     0.13591192E+02
Kinetic eigenvalue #  16 =     0.14202334E+02
Kinetic eigenvalue #  17 =     0.77091226E+01
 Diagonalising expanded subspace
 Copying updated data back
eigenvalue    1 init= -83.96     fin= -83.96     change= 0.1332E-08
eigenvalue    2 init= -53.14     fin= -53.14     change= 0.1375E-10
eigenvalue    3 init= -53.14     fin= -53.14     change= 0.1324E-10
eigenvalue    4 init= -52.98     fin= -52.98     change= 0.1262E-10
eigenvalue    5 init= -20.24     fin= -20.24     change= 0.1339E-07
eigenvalue    6 init= -7.715     fin= -7.715     change= 0.1526E-06
eigenvalue    7 init= -7.330     fin= -7.330     change= 0.3548E-07
eigenvalue    8 init= -7.329     fin= -7.329     change= 0.4358E-07
 Checking convergence criteria
 Diagonalising expanded subspace
 Copying updated data back
eigenvalue    9 init= -6.009     fin= -6.009     change= 0.4282E-08
eigenvalue   10 init= -5.842     fin= -5.842     change= 0.2894E-07
eigenvalue   11 init= -4.276     fin= -4.276     change= 0.1227E-06
eigenvalue   12 init= -3.705     fin= -3.705     change= 0.2146E-07
eigenvalue   13 init= -3.678     fin= -3.678     change= 0.6387E-07
eigenvalue   14 init= -1.808     fin= -1.808     change= 0.2123E-06
eigenvalue   15 init= 0.2985     fin= 0.2985     change= 0.2828E-07
eigenvalue   16 init= 0.4285     fin= 0.4285     change= 0.1928E-07
 Checking convergence criteria
 Diagonalising expanded subspace
 Copying updated data back
eigenvalue   17 init=  2.639     fin=  2.639     change= 0.2383E-06
 Checking convergence criteria
 no. bands in each block=           8
Kinetic eigenvalue #   1 =     0.38349107E+02
Kinetic eigenvalue #   2 =     0.39990479E+02
Kinetic eigenvalue #   3 =     0.39990669E+02
Kinetic eigenvalue #   4 =     0.39595113E+02
Kinetic eigenvalue #   5 =     0.25115800E+02
Kinetic eigenvalue #   6 =     0.41989880E+02
Kinetic eigenvalue #   7 =     0.37276478E+02
Kinetic eigenvalue #   8 =     0.37719731E+02
Kinetic eigenvalue #   9 =     0.37475098E+02
Kinetic eigenvalue #  10 =     0.37727497E+02
Kinetic eigenvalue #  11 =     0.20657443E+02
Kinetic eigenvalue #  12 =     0.37692453E+02
Kinetic eigenvalue #  13 =     0.41271934E+02
Kinetic eigenvalue #  14 =     0.25373310E+02
Kinetic eigenvalue #  15 =     0.13467602E+02
Kinetic eigenvalue #  16 =     0.80168387E+01
Kinetic eigenvalue #  17 =     0.17092362E+02
 Diagonalising expanded subspace
 Copying updated data back
eigenvalue    1 init= -83.96     fin= -83.96     change= 0.1340E-08
eigenvalue    2 init= -53.14     fin= -53.14     change= 0.1315E-10
eigenvalue    3 init= -53.14     fin= -53.14     change= 0.1343E-10
eigenvalue    4 init= -52.98     fin= -52.98     change= 0.1094E-10
eigenvalue    5 init= -20.24     fin= -20.24     change= 0.1044E-07
eigenvalue    6 init= -7.719     fin= -7.719     change= 0.1184E-06
eigenvalue    7 init= -7.334     fin= -7.334     change= 0.4807E-07
eigenvalue    8 init= -7.299     fin= -7.299     change= 0.2098E-07
 Checking convergence criteria
 Diagonalising expanded subspace
 Copying updated data back
eigenvalue    9 init= -6.043     fin= -6.043     change= 0.1052E-07
eigenvalue   10 init= -5.822     fin= -5.822     change= 0.2174E-07
eigenvalue   11 init= -4.525     fin= -4.525     change= 0.1683E-06
eigenvalue   12 init= -3.725     fin= -3.725     change= 0.7761E-07
eigenvalue   13 init= -3.577     fin= -3.577     change= 0.1819E-07
eigenvalue   14 init= -2.002     fin= -2.002     change= 0.3320E-06
eigenvalue   15 init= -.6814E-01 fin= -.6814E-01 change= 0.2584E-07
eigenvalue   16 init=  2.021     fin=  2.021     change= 0.1364E-06
 Checking convergence criteria
 Diagonalising expanded subspace
 Copying updated data back
eigenvalue   17 init=  2.481     fin=  2.481     change= 0.6125E-07
 Checking convergence criteria
 no. bands in each block=           8
Kinetic eigenvalue #   1 =     0.37872905E+02
Kinetic eigenvalue #   2 =     0.39259300E+02
Kinetic eigenvalue #   3 =     0.39828257E+02
Kinetic eigenvalue #   4 =     0.39828259E+02
Kinetic eigenvalue #   5 =     0.25199402E+02
Kinetic eigenvalue #   6 =     0.43738677E+02
Kinetic eigenvalue #   7 =     0.37798123E+02
Kinetic eigenvalue #   8 =     0.37872129E+02
Kinetic eigenvalue #   9 =     0.36860242E+02
Kinetic eigenvalue #  10 =     0.35045105E+02
Kinetic eigenvalue #  11 =     0.20359189E+02
Kinetic eigenvalue #  12 =     0.36368693E+02
Kinetic eigenvalue #  13 =     0.36613529E+02
Kinetic eigenvalue #  14 =     0.23527933E+02
Kinetic eigenvalue #  15 =     0.13522408E+02
Kinetic eigenvalue #  16 =     0.14641005E+02
Kinetic eigenvalue #  17 =     0.80377602E+01
 Diagonalising expanded subspace
 Copying updated data back
eigenvalue    1 init= -80.00     fin= -80.00     change= 0.8280E-09
[...]
Spin 1, kpoint ( 0.250000 -0.333333  0.333333 ) weight = 0.111111
+--------+-------------------+----------------+
|  Band  |   Eigenvalue      |    Occupancy   |                   <- occ
+--------+-------------------+----------------+                   <- occ
|     8  |   -.728860E+01    |   1.00000      |                   <- occ
|     9  |   -.590755E+01    |   1.00000      |                   <- occ
|    10  |   -.574241E+01    |   1.00000      |                   <- occ
|    11  |   -.422998E+01    |   1.00000      |                   <- occ
|    12  |   -.366703E+01    |  0.999932      |                   <- occ
|    13  |   -.363812E+01    |  0.999847      |                   <- occ
|    14  |   -.177177E+01    |   0.00000      |                   <- occ
|    15  |   0.316673E+00    |   0.00000      |                   <- occ
+--------+-------------------+----------------+                   <- occ
Spin 2, kpoint (-0.250000 -0.333333 -0.333333 ) weight = 0.111111
+--------+-------------------+----------------+
|  Band  |   Eigenvalue      |    Occupancy   |                   <- occ
+--------+-------------------+----------------+                   <- occ
|     8  |   -.588837E+01    |   1.00000      |                   <- occ
|     9  |   -.222767E+01    |  0.989995E-10  |                   <- occ
|    10  |   -.211022E+01    |  0.316136E-12  |                   <- occ
|    11  |   -.195757E+01    |   0.00000      |                   <- occ
|    12  |   -.117879E+01    |   0.00000      |                   <- occ
|    13  |   -.114878E+01    |   0.00000      |                   <- occ
|    14  |   -.223276E+00    |   0.00000      |                   <- occ
|    15  |   0.162727E+01    |   0.00000      |                   <- occ
+--------+-------------------+----------------+                   <- occ
Spin 2, kpoint (-0.250000  0.000000 -0.333333 ) weight = 0.111111
+--------+-------------------+----------------+
|  Band  |   Eigenvalue      |    Occupancy   |                   <- occ
+--------+-------------------+----------------+                   <- occ
|     8  |   -.583323E+01    |   1.00000      |                   <- occ
|     9  |   -.245733E+01    |  0.107433E-05  |                   <- occ
|    10  |   -.219001E+01    |  0.168774E-10  |                   <- occ
|    11  |   -.204688E+01    |  0.107692E-13  |                   <- occ
|    12  |   -.121815E+01    |   0.00000      |                   <- occ
|    13  |   -.103236E+01    |   0.00000      |                   <- occ
|    14  |   -.423870E+00    |   0.00000      |                   <- occ
|    15  |   0.123340E+01    |   0.00000      |                   <- occ
+--------+-------------------+----------------+                   <- occ
Spin 2, kpoint (-0.250000  0.000000  0.333333 ) weight = 0.111111
+--------+-------------------+----------------+
|  Band  |   Eigenvalue      |    Occupancy   |                   <- occ
+--------+-------------------+----------------+                   <- occ
|     8  |   -.583323E+01    |   1.00000      |                   <- occ
|     9  |   -.245733E+01    |  0.107433E-05  |                   <- occ
|    10  |   -.219001E+01    |  0.168774E-10  |                   <- occ
|    11  |   -.204688E+01    |  0.107692E-13  |                   <- occ
|    12  |   -.121815E+01    |   0.00000      |                   <- occ
|    13  |   -.103236E+01    |   0.00000      |                   <- occ
|    14  |   -.423870E+00    |   0.00000      |                   <- occ
|    15  |   0.123340E+01    |   0.00000      |                   <- occ
+--------+-------------------+----------------+                   <- occ
Spin 2, kpoint (-0.250000  0.333333  0.333333 ) weight = 0.111111
+--------+-------------------+----------------+
|  Band  |   Eigenvalue      |    Occupancy   |                   <- occ
+--------+-------------------+----------------+                   <- occ
|     8  |   -.588837E+01    |   1.00000      |                   <- occ
|     9  |   -.222767E+01    |  0.989995E-10  |                   <- occ
|    10  |   -.211022E+01    |  0.316136E-12  |                   <- occ
|    11  |   -.195757E+01    |   0.00000      |                   <- occ
|    12  |   -.117879E+01    |   0.00000      |                   <- occ
|    13  |   -.114878E+01    |   0.00000      |                   <- occ
|    14  |   -.223276E+00    |   0.00000      |                   <- occ
|    15  |   0.162727E+01    |   0.00000      |                   <- occ
+--------+-------------------+----------------+                   <- occ
Spin 2, kpoint ( 0.250000  0.333333  0.000000 ) weight = 0.111111
+--------+-------------------+----------------+
|  Band  |   Eigenvalue      |    Occupancy   |                   <- occ
+--------+-------------------+----------------+                   <- occ
|     8  |   -.583323E+01    |   1.00000      |                   <- occ
|     9  |   -.245733E+01    |  0.107433E-05  |                   <- occ
|    10  |   -.219001E+01    |  0.168775E-10  |                   <- occ
|    11  |   -.204688E+01    |  0.107692E-13  |                   <- occ
|    12  |   -.121815E+01    |   0.00000      |                   <- occ
|    13  |   -.103235E+01    |   0.00000      |                   <- occ
|    14  |   -.423870E+00    |   0.00000      |                   <- occ
|    15  |   0.123340E+01    |   0.00000      |                   <- occ
+--------+-------------------+----------------+                   <- occ
Spin 2, kpoint (-0.250000 -0.333333  0.333333 ) weight = 0.111111
+--------+-------------------+----------------+
|  Band  |   Eigenvalue      |    Occupancy   |                   <- occ
+--------+-------------------+----------------+                   <- occ
|     8  |   -.588837E+01    |   1.00000      |                   <- occ
|     9  |   -.222767E+01    |  0.989995E-10  |                   <- occ
|    10  |   -.211022E+01    |  0.316136E-12  |                   <- occ
|    11  |   -.195757E+01    |   0.00000      |                   <- occ
|    12  |   -.117879E+01    |   0.00000      |                   <- occ
|    13  |   -.114878E+01    |   0.00000      |                   <- occ
|    14  |   -.223276E+00    |   0.00000      |                   <- occ
|    15  |   0.162727E+01    |   0.00000      |                   <- occ
+--------+-------------------+----------------+                   <- occ
Spin 2, kpoint (-0.250000  0.000000  0.000000 ) weight = 0.111111
+--------+-------------------+----------------+
|  Band  |   Eigenvalue      |    Occupancy   |                   <- occ
+--------+-------------------+----------------+                   <- occ
|     8  |   -.583746E+01    |   1.00000      |                   <- occ
|     9  |   -.280293E+01    |  0.108611E-01  |                   <- occ
|    10  |   -.234374E+01    |  0.149413E-07  |                   <- occ
|    11  |   -.201559E+01    |  0.188738E-14  |                   <- occ
|    12  |   -.104572E+01    |   0.00000      |                   <- occ
|    13  |   -.104572E+01    |   0.00000      |                   <- occ
|    14  |   -.630432E+00    |   0.00000      |                   <- occ
|    15  |   0.190732E+01    |   0.00000      |                   <- occ
+--------+-------------------+----------------+                   <- occ
Spin 2, kpoint (-0.250000  0.333333  0.000000 ) weight = 0.111111
+--------+-------------------+----------------+
|  Band  |   Eigenvalue      |    Occupancy   |                   <- occ
+--------+-------------------+----------------+                   <- occ
|     8  |   -.583323E+01    |   1.00000      |                   <- occ
|     9  |   -.245733E+01    |  0.107433E-05  |                   <- occ
|    10  |   -.219001E+01    |  0.168775E-10  |                   <- occ
|    11  |   -.204688E+01    |  0.107692E-13  |                   <- occ
|    12  |   -.121815E+01    |   0.00000      |                   <- occ
|    13  |   -.103235E+01    |   0.00000      |                   <- occ
|    14  |   -.423870E+00    |   0.00000      |                   <- occ
|    15  |   0.123340E+01    |   0.00000      |                   <- occ
+--------+-------------------+----------------+                   <- occ
Spin 2, kpoint ( 0.250000 -0.333333  0.333333 ) weight = 0.111111
+--------+-------------------+----------------+
|  Band  |   Eigenvalue      |    Occupancy   |                   <- occ
+--------+-------------------+----------------+                   <- occ
|     8  |   -.588837E+01    |   1.00000      |                   <- occ
|     9  |   -.222767E+01    |  0.989995E-10  |                   <- occ
|    10  |   -.211022E+01    |  0.316136E-12  |                   <- occ
|    11  |   -.195757E+01    |   0.00000      |                   <- occ
|    12  |   -.117879E+01    |   0.00000      |                   <- occ
|    13  |   -.114878E+01    |   0.00000      |                   <- occ
|    14  |   -.223276E+00    |   0.00000      |                   <- occ
|    15  |   0.162727E+01    |   0.00000      |                   <- occ
+--------+-------------------+----------------+                   <- occ
  achieved Hubbard U energy convergence:   5.9338876146064479E-007
Have a nice day.

Writing analysis data to MnO.castep_bin

Writing model to MnO.check
                            Ewald force:
Species #   1 Atom #   1 Fx: 483.919     Fy:0.185030E-13 Fz:0.185420E-13 eV/A
Species #   2 Atom #   1 Fx:-483.919     Fy:-.184017E-13 Fz:-.185483E-13 eV/A

 Pseudo atomic calculation performed for O 2s2 2p4

 Converged in 24 iterations to a total energy of -431.0932 eV

 Pseudo atomic calculation performed for Mn 3s2 3p6 3d5 4s2

 Converged in 38 iterations to a total energy of -2902.3718 eV
  Accepting available Hubbard U occ matrix: 

     Hubbard U occupation numbers
     ----------------------------
Species   Ion   l  spin               occupancies
==================================================================
  Mn       1    2   up:   0.78  0.98  0.98  1.00  1.00
                    dn:  -0.00  0.00  0.33  0.33  0.35
==================================================================

 Density matrix in cubic harmonics:
     0.9455    -0.0000     0.0000     0.0939     0.0000
     0.0000     0.0000     0.0000     0.0000     0.0000
    -0.0000     0.9996    -0.0000     0.0000    -0.0000
     0.0000     0.0000     0.0000     0.0000     0.0000
     0.0000    -0.0000     0.9792    -0.0000     0.0000
     0.0000     0.0000     0.0000     0.0000     0.0000
     0.0939     0.0000    -0.0000     0.8370    -0.0000
     0.0000     0.0000     0.0000     0.0000     0.0000
     0.0000    -0.0000     0.0000    -0.0000     0.9792
     0.0000     0.0000     0.0000     0.0000     0.0000
 Hermiticity:              (0.21140424577281647,0.0000000000000000)
 Density matrix in cubic harmonics:
     0.0879     0.0000    -0.0000    -0.1521    -0.0000
     0.0000     0.0000     0.0000     0.0000     0.0000
     0.0000     0.0000    -0.0000    -0.0000    -0.0000
     0.0000     0.0000     0.0000     0.0000     0.0000
    -0.0000    -0.0000     0.3254     0.0000    -0.0000
     0.0000     0.0000     0.0000     0.0000     0.0000
    -0.1521    -0.0000     0.0000     0.2635     0.0000
     0.0000     0.0000     0.0000     0.0000     0.0000
    -0.0000    -0.0000    -0.0000     0.0000     0.3254
     0.0000     0.0000     0.0000     0.0000     0.0000
 Hermiticity:              (0.66698351007786338,0.0000000000000000)
Hubbard U energy: Ha   =   -0.033766306374
Hubbard U forces Ha/A    1     7.747877115931    4.724315314592    4.724315314592    0.000000000001   -0.000000000000    0.000000000000
Hubbard U forces Ha/A    2     4.724315314592    4.724315314592    4.724315314592   -0.000000000042   -0.000000000000   -0.000000000000
  achieved Hubbard U energy convergence:   7.3498644949913272E-007

 *********************** Ewald forces ***********************
 *                                                          *
 *               Cartesian components (eV/A)                *
 * -------------------------------------------------------- *
 *                         x            y            z      *
 *                                                          *
 * O               1    483.91934      0.00000      0.00000 *
 * Mn              1   -483.91934     -0.00000     -0.00000 *
 *                                                          *
 ************************************************************

 ****************** Local potential forces ******************
 *                                                          *
 *               Cartesian components (eV/A)                *
 * -------------------------------------------------------- *
 *                         x            y            z      *
 *                                                          *
 * O               1   -453.51022     -0.00000     -0.00000 *
 * Mn              1    496.06611     -0.00000     -0.00000 *
 *                                                          *
 ************************************************************

 **************** Non-local potential forces ****************
 *                                                          *
 *               Cartesian components (eV/A)                *
 * -------------------------------------------------------- *
 *                         x            y            z      *
 *                                                          *
 * O               1    -30.33389      0.00000      0.00000 *
 * Mn              1    -13.39395      0.00000      0.00000 *
 *                                                          *
 ************************************************************

 ************** External Efield and/or dipole ***************
 *                                                          *
 *               Cartesian components (eV/A)                *
 * -------------------------------------------------------- *
 *                         x            y            z      *
 *                                                          *
 * O               1      0.00000      0.00000      0.00000 *
 * Mn              1      0.00000      0.00000      0.00000 *
 *                                                          *
 ************************************************************

 ***************** DM correction to forces ******************
 *                                                          *
 *               Cartesian components (eV/A)                *
 * -------------------------------------------------------- *
 *                         x            y            z      *
 *                                                          *
 * O               1      0.00000      0.00000      0.00000 *
 * Mn              1      0.00000      0.00000      0.00000 *
 *                                                          *
 ************************************************************

 ***************** Hubbard potential forces *****************
 *                                                          *
 *               Cartesian components (eV/A)                *
 * -------------------------------------------------------- *
 *                         x            y            z      *
 *                                                          *
 * O               1      0.00000     -0.00000      0.00000 *
 * Mn              1     -0.00000     -0.00000     -0.00000 *
 *                                                          *
 ************************************************************

 ************************** Forces **************************
 *                                                          *
 *               Cartesian components (eV/A)                *
 * -------------------------------------------------------- *
 *                         x            y            z      *
 *                                                          *
 * O               1      0.66121     -0.00000      0.00000 *
 * Mn              1     -0.66121      0.00000     -0.00000 *
 *                                                          *
 ************************************************************

 Pseudo atomic calculation performed for O 2s2 2p4

 Converged in 24 iterations to a total energy of -431.0932 eV

 Pseudo atomic calculation performed for Mn 3s2 3p6 3d5 4s2

 Converged in 38 iterations to a total energy of -2902.3718 eV
Charge spilling parameter for spin component 1 = 0.18%
Charge spilling parameter for spin component 2 = 0.19%

                   Orbital Populations                  
  ---------------------------------------------------------------
     Ion    Atom   Orbital              Up        Down      Spin
  ---------------------------------------------------------------
      O     1      S                    0.963     0.959     0.004
      O     1      Px                   0.674     0.734    -0.060
      O     1      Py                   0.902     0.722     0.181
      O     1      Pz                   0.902     0.722     0.181
     Mn     1      S                    0.999     1.000    -0.001
     Mn     1      Px                   0.998     0.998     0.000
     Mn     1      Py                   1.000     1.000     0.000
     Mn     1      Pz                   1.000     1.000     0.000
     Mn     1      Dzz                  0.928     0.067     0.861
     Mn     1      Dzy                  1.000     0.000     1.000
     Mn     1      Dzx                  0.972     0.257     0.714
     Mn     1      Dxx-yy               0.785     0.201     0.584
     Mn     1      Dxy                  0.972     0.257     0.714
     Mn     1      S                    0.607     0.020     0.587
     Mn     1      Px                   0.038     0.022     0.015
     Mn     1      Py                   0.129     0.021     0.108
     Mn     1      Pz                   0.129     0.021     0.108
  ---------------------------------------------------------------
                           Total:      12.999     8.001     4.998
  ---------------------------------------------------------------
The total projected populations are: spin up   12.999  -0.000, spin down    8.001   0.000, total   21.000  -0.000

     Atomic Populations (Mulliken)
     -----------------------------
Species          Ion Spin      s      p      d      f     Total  Charge(e)   Spin(hbar/2)
=========================================================================================
  O               1   up:     0.96   2.48   0.00   0.00   3.44    -0.58        0.31
                  1   dn:     0.96   2.18   0.00   0.00   3.14
  Mn              1   up:     1.61   3.29   4.66   0.00   9.56     0.58        4.69
                  1   dn:     1.02   3.06   0.78   0.00   4.86
=========================================================================================

                 Bond                   Population        Spin       Length (A)
================================================================================
               O 1 -- Mn 1                   0.64        -0.04          1.60000
================================================================================


Writing analysis data to MnO.castep_bin

Writing model to MnO.check
Initialisation time =     13.29 s
Calculation time    =     15.87 s
Finalisation time   =      0.13 s
Total time          =     29.29 s
Peak Memory Use     = 519164 kB
  
Overall parallel efficiency rating: Good (76%)                                  
  
Data was distributed by:-
k-point (2-way); efficiency rating: Good (77%)                                  
  
Parallel notes:
1) Calculation only took 29.2 s, so efficiency estimates may be inaccurate.     
2) k-points were not fully distributed, there were 5 k-points per process.      
  
Efficiencies are estimated from the ratio of communication time to total time,
and do not include all the effects of serial operations or load imbalance.
