 +-------------------------------------------------+
 |                                                 |
 |      CCC   AA    SSS  TTTTT  EEEEE  PPPP        |
 |     C     A  A  S       T    E      P   P       |
 |     C     AAAA   SS     T    EEE    PPPP        |
 |     C     A  A     S    T    E      P           |
 |      CCC  A  A  SSS     T    EEEEE  P           |
 |                                                 |
 +-------------------------------------------------+
 |                                                 |
 | Welcome to Academic Release CASTEP version 19.11|          
 | Ab Initio Total Energy Program                  |
 |                                                 |
 | Authors:                                        |
 | M. Segall, M. Probert, C. Pickard, P. Hasnip,   |
 | S. Clark, K. Refson, J. R. Yates, M. Payne      |
 |                                                 |
 | Contributors:                                   |
 | P. Lindan, P. Haynes, J. White, V. Milman,      |
 | N. Govind, M. Gibson, P. Tulip, V. Cocula,      |
 | B. Montanari, D. Quigley, M. Glover,            |
 | L. Bernasconi, A. Perlov, M. Plummer,           |
 | E. McNellis, J. Meyer, J. Gale, D. Jochym       |
 | J. Aarons, B. Walker, R. Gillen, D. Jones       |
 | T. Green, I. J. Bush, C. J. Armstrong,          |
 | E. J. Higgins, E. L. Brown, M. S. McFly,        |
 | J. Wilkins, B-C. Shih, P. J. P. Byrne           |
 |                                                 |
 | Copyright (c) 2000 - 2018                       |
 |                                                 |
 |     Distributed under the terms of an           |
 |     Agreement between the United Kingdom        |
 |     Car-Parrinello (UKCP) Consortium,           |
 |     Daresbury Laboratory and Accelrys, Inc.     |
 |                                                 |
 | Please cite                                     |
 |                                                 |
 |     "First principles methods using CASTEP"     |
 |                                                 |
 |         Zeitschrift fuer Kristallographie       |
 |           220(5-6) pp. 567-570 (2005)           |
 |                                                 |
 | S. J. Clark, M. D. Segall, C. J. Pickard,       |
 | P. J. Hasnip, M. J. Probert, K. Refson,         |
 | M. C. Payne                                     |
 |                                                 |
 |       in all publications arising from          |
 |              your use of CASTEP                 |
 |                                                 |
 +-------------------------------------------------+
 |                                                 |
 |              http://www.castep.org              |
 |                                                 |
 +-------------------------------------------------+



 Compiled for linux_x86_64_gfortran7.0 on Mon, 30 Mar 2020 12:17:21 +0100
 from code version e1fe0d666396+ Castep191_branch Thu, 24 Oct 2019 13:54:03 +0100
 Compiler: GNU Fortran 7.5.0; Optimisation: fast
 MATHLIBS: Intel MKL(2019.0.5) (LAPACK version 3.7.0)
 FFT Lib : mkl
 Fundamental constants values: CODATA 2014

 Run started: Wed, 04 Nov 2020 19:31:33 +0000

 ******************************* User Parameters *******************************
iprint              : 3          # verbosity control (I)
reuse               : base.check # reuse filename (S)
writebib            : F          # output BibTeX references (L)
writeotfg           : F          # output OTFG files (L)
writecstesp         : F          # output cst_esp file (L)
spin                : 5.0000000  # net spin (R)
spinpolarised       : T          # spin polarised (L)
%block develcode    :            # developers code (B)
iprintu=8,
%endblock develcode :            # developers code (B)

 *******************************************************************************
  

 Atomic calculation performed for O: 1s2 2s2 2p4

 Converged in 60 iterations to an ae energy of -2027.926 eV


 Atomic calculation performed for Mn: 1s2 2s2 2p6 3s2 3p6 3d5 4s2

 Converged in 96 iterations to an ae energy of -31460.102 eV


 Pseudo atomic calculation performed for O 2s2 2p4

 Converged in 24 iterations to a total energy of -431.0932 eV

 Pseudo atomic calculation performed for Mn 3s2 3p6 3d5 4s2

 Converged in 38 iterations to a total energy of -2902.3718 eV
Initialising basis set.

Standard grid dimensions:  48  36  36
Fine grid dimensions:      48  36  36

Plane wave load balancing: max   5869 min   5847 average   5864
True cut-off energy of basis :  22.996
 Reusing data from model file base.check
 Number of symmetry ops  =           1

 ******************************* User Parameters *******************************
iprint              : 3          # verbosity control (I)
reuse               : base.check # reuse filename (S)
writebib            : F          # output BibTeX references (L)
writeotfg           : F          # output OTFG files (L)
writecstesp         : F          # output cst_esp file (L)
spin                : 5.0000000  # net spin (R)
spinpolarised       : T          # spin polarised (L)
%block develcode    :            # developers code (B)
iprintu=8,
%endblock develcode :            # developers code (B)

 *******************************************************************************
  

 Atomic calculation performed for O: 1s2 2s2 2p4

 Converged in 60 iterations to an ae energy of -2027.926 eV


 Atomic calculation performed for Mn: 1s2 2s2 2p6 3s2 3p6 3d5 4s2

 Converged in 96 iterations to an ae energy of -31460.102 eV


 Pseudo atomic calculation performed for O 2s2 2p4

 Converged in 24 iterations to a total energy of -431.0932 eV

 Pseudo atomic calculation performed for Mn 3s2 3p6 3d5 4s2

 Converged in 38 iterations to a total energy of -2902.3718 eV
Initialising basis set.

Standard grid dimensions:  48  36  36
Fine grid dimensions:      48  36  36

Plane wave load balancing: max   5869 min   5847 average   5864
True cut-off energy of basis :  22.996
K-point set unchanged, read in wavefunction.
Reusing density from model file.
 Calculation parallelised over 2 processes.
 Data is distributed by k-point(2-way)

 ************************************ Title ************************************
 

 ***************************** General Parameters ******************************
  
 output verbosity                               : extreme (3)
 reusing                                        : base.check
 write checkpoint data to                       : MnO.check
 type of calculation                            : single point energy
 stress calculation                             : off
 density difference calculation                 : off
 electron localisation func (ELF) calculation   : off
 Hirshfeld analysis                             : off
 unlimited duration calculation
 timing information                             : on
 memory usage estimate                          : on
 write extra output files                       : on
 write final potential to formatted file        : off
 write final density to formatted file          : off
 write BibTeX reference list                    : off
 write OTFG pseudopotential files               : off
 write electrostatic potential file             : off
 write bands file                               : on
 checkpoint writing                             : both castep_bin and check files
  
 output         length unit                     : A
 output           mass unit                     : amu
 output           time unit                     : ps
 output         charge unit                     : e
 output           spin unit                     : hbar/2
 output         energy unit                     : eV
 output          force unit                     : eV/A
 output       velocity unit                     : A/ps
 output       pressure unit                     : GPa
 output     inv_length unit                     : 1/A
 output      frequency unit                     : cm-1
 output force constant unit                     : eV/A**2
 output         volume unit                     : A**3
 output   IR intensity unit                     : (D/A)**2/amu
 output         dipole unit                     : D
 output         efield unit                     : eV/A/e
 output        entropy unit                     : J/mol/K
  
 wavefunctions paging                           : none
 random number generator seed                   : randomised (193140081)
 data distribution                              : optimal for this architecture
 optimization strategy                          : balance speed and memory

 *********************** Exchange-Correlation Parameters ***********************
  
 using functional                               : Local Density Approximation
 relativistic treatment                         : Koelling-Harmon
 DFT+D: Semi-empirical dispersion correction    : off

 ************************* Pseudopotential Parameters **************************
  
 pseudopotential representation                 : reciprocal space
 <beta|phi> representation                      : reciprocal space
 spin-orbit coupling                            : off

 **************************** Basis Set Parameters *****************************
  
 basis set accuracy                             : FINE
 plane wave basis set cut-off                   :   625.8619   eV
 size of standard grid                          :     1.7500
 size of   fine   gmax                          :    22.4293   1/A
 largest prime factor in FFT                    :          5
 finite basis set correction                    : none

 **************************** Electronic Parameters ****************************
  
 number of  electrons                           :  21.00    
 net charge of system                           :  0.000    
 net spin   of system                           :  5.000    
 number of  up  spins                           :  13.00    
 number of down spins                           :  8.000    
 treating system as spin-polarized
 number of bands                                :         17

 ********************* Electronic Minimization Parameters **********************
  
 Method: Treating system as metallic with density mixing treatment of electrons,
         and number of  SD  steps               :          1
         and number of  CG  steps               :          4
  
 total energy / atom convergence tol.           : 0.1000E-04   eV
 eigen-energy convergence tolerance             : 0.1000E-05   eV
 max force / atom convergence tol.              : ignored
 convergence tolerance window                   :          3   cycles
 max. number of SCF cycles                      :         30
 number of fixed-spin iterations                :         10
 smearing scheme                                : Gaussian
 smearing width                                 : 0.2000       eV
 Fermi energy convergence tolerance             : 0.2721E-13   eV
 periodic dipole correction                     : NONE

 ************************** Density Mixing Parameters **************************
  
 density-mixing scheme                          : Broyden
 max. length of mixing history                  :         20
 charge density mixing amplitude                : 0.8000    
   spin density mixing amplitude                :  2.000    
 charge density mixing g-vector                 :  1.500       1/A
   spin density mixing g-vector                 :  1.500       1/A

 *********************** Population Analysis Parameters ************************
  
 Population analysis with cutoff                :  3.000       A
 Population analysis output                     : summary and pdos components

 ******************************* Developer Code ********************************
  
 iprintu=8,

 *******************************************************************************
  

                           -------------------------------
                                      Unit Cell
                           -------------------------------
        Real Lattice(A)                      Reciprocal Lattice(1/A)
     6.6000000     0.0000000     0.0000000        0.951997774   0.000000000   0.000000000
     0.0000000     5.0000000     0.0000000        0.000000000   1.256637061   0.000000000
     0.0000000     0.0000000     5.0000000        0.000000000   0.000000000   1.256637061

                       Lattice parameters(A)       Cell Angles
                    a =      6.600000          alpha =   90.000000
                    b =      5.000000          beta  =   90.000000
                    c =      5.000000          gamma =   90.000000

                       Current cell volume =           165.000000       A**3
                                   density =             0.429924   AMU/A**3
                                           =             0.713905     g/cm^3

                           -------------------------------
                                     Cell Contents
                           -------------------------------
                         Total number of ions in cell =    2
                      Total number of species in cell =    2
                        Max number of any one species =    1

            xxxxxxxxxxxxxxxxxxxxxxxxxxxxxxxxxxxxxxxxxxxxxxxxxxxxxxxxxxxx
            x  Element    Atom        Fractional coordinates of atoms  x
            x            Number           u          v          w      x
            x----------------------------------------------------------x
            x  O            1         0.621212   0.500000   0.500000   x 
            x  Mn           1         0.378788   0.500000   0.500000   x 
            xxxxxxxxxxxxxxxxxxxxxxxxxxxxxxxxxxxxxxxxxxxxxxxxxxxxxxxxxxxx


                         No user defined ionic velocities

                           -------------------------------
                                   Details of Species
                           -------------------------------

                               Mass of species in AMU
                                    O   15.9994000
                                    Mn   54.9380500

                          Electric Quadrupole Moment (Barn)
                                    O   -0.0255800 Isotope 17
                                    Mn    0.3300000 Isotope 55


         Quantisation axis:    0.00000   0.00000   1.00000

         Units for Hubbard U values are eV
         xxxxxxxxxxxxxxxxxxxxxxxxxxxxxxxxxxxxxxxxxxxxxxxxxxxxxxxxxxxxxxxxxxxx
         |  Element     Atom     Hubbard U   values by orbital type         |
         |             Number      s          p          d          f       |
         |------------------------------------------------------------------|
         |O             1         0.00000    0.00000    0.00000    0.00000  |
         |Mn            1         0.00000    0.00000    0.00000    0.00000  |
         xxxxxxxxxxxxxxxxxxxxxxxxxxxxxxxxxxxxxxxxxxxxxxxxxxxxxxxxxxxxxxxxxxxx


                          Files used for pseudopotentials:
                                    O 2|1.1|17|20|23|20:21(qc=8)
                                    Mn 3|1.8|1.8|0.6|12|14|16|30U:40:31:32(qc=7)

                           -------------------------------
                              k-Points For BZ Sampling
                           -------------------------------
                       MP grid size for SCF calculation is  2  3  3
                            with an offset of   0.000  0.000  0.000
                       Number of kpoints used =             9

             +++++++++++++++++++++++++++++++++++++++++++++++++++++++
             +  Number       Fractional coordinates        Weight  +
             +-----------------------------------------------------+
             +     1  -0.250000  -0.333333  -0.333333   0.1111111  +
             +     2  -0.250000  -0.333333   0.333333   0.1111111  +
             +     3  -0.250000   0.000000  -0.333333   0.1111111  +
             +     4  -0.250000   0.000000   0.000000   0.1111111  +
             +     5  -0.250000   0.000000   0.333333   0.1111111  +
             +     6  -0.250000   0.333333   0.000000   0.1111111  +
             +     7  -0.250000   0.333333   0.333333   0.1111111  +
             +     8   0.250000  -0.333333   0.333333   0.1111111  +
             +     9   0.250000   0.333333   0.000000   0.1111111  +
             +++++++++++++++++++++++++++++++++++++++++++++++++++++++

                           -------------------------------
                               Symmetry and Constraints
                           -------------------------------

                      Maximum deviation from symmetry =  0.00000         ANG

                      Number of symmetry operations   =           1
                      Number of ionic constraints     =           3
                      Point group of crystal =     1: C1, 1, 1
                      Space group of crystal =    99: P4mm, P 4 -2

                    1 rotation    
                 (   1.00000000000   0.00000000000   0.00000000000 )
                 (   0.00000000000   1.00000000000   0.00000000000 )
                 (   0.00000000000   0.00000000000   1.00000000000 )
                    1 displacement
                 (   0.00000000000   0.00000000000   0.00000000000 )
                      symmetry related atoms: 
             O:    1
             Mn:    1


                         Centre of mass is constrained

            xxxxxxxxxxxxxxxxxxxxxxxxxxxxxxxxxxxxxxxxxxxxxxxxxxxxxxxxxxxxxx....
            x  Species       atom   co-ordinate  constraints.....         
            x-------------------------------------------------------------....
            x O                 1       x        29165.1220      0.0000      0.0000
            x O                 1       y            0.0000  29165.1220      0.0000
            x O                 1       z            0.0000      0.0000  29165.1220
            x Mn                1       x       100145.9388      0.0000      0.0000
            x Mn                1       y            0.0000 100145.9388      0.0000
            x Mn                1       z            0.0000      0.0000 100145.9388
            xxxxxxxxxxxxxxxxxxxxxxxxxxxxxxxxxxxxxxxxxxxxxxxxxxxxxxxxxxxxxx....

                         Number of cell constraints= 0
                         Cell constraints are:  1 2 3 4 5 6

                         External pressure/stress (GPa)
                          0.00000   0.00000   0.00000
                                    0.00000   0.00000
                                              0.00000
Density mixing plane wave load balancing: max      0 min      0 average      0
  
+---------------- MEMORY AND SCRATCH DISK ESTIMATES PER PROCESS --------------+
|                                                     Memory          Disk    |
| Baseline code, static data and system overhead      354.0 MB         0.0 MB |
| BLAS internal memory storage                          0.0 MB         0.0 MB |
| Model and support data                               67.2 MB       110.4 MB |
| Electronic energy minimisation requirements          51.6 MB         0.0 MB |
| Force calculation requirements                       13.8 MB         0.0 MB |
|                                               ----------------------------- |
| Approx. total storage required per process          472.8 MB       110.4 MB |
|                                                                             |
| Requirements will fluctuate during execution and may exceed these estimates |
+-----------------------------------------------------------------------------+
Calculating total energy with cut-off of  625.862 eV.
electronic_minimisation: Initialising

 Pseudo atomic calculation performed for O 2s2 2p4

 Converged in 24 iterations to a total energy of -431.0932 eV

 Pseudo atomic calculation performed for Mn 3s2 3p6 3d5 4s2

 Converged in 38 iterations to a total energy of -2902.3718 eV
  Initializing Hubbard U occ matrix: 

     Hubbard U occupation numbers
     ----------------------------
Species   Ion   l  spin               occupancies
==================================================================
  Mn       1    2   up:   0.00  0.00  1.00  1.00  1.00
                    dn:   0.00  0.00  1.00  1.00  1.00
==================================================================

electronic_minimisation: Initialising density mixing
 Initialising mixing density basis set.
Density mixing plane wave load balancing: max   5871 min   5871 average   5871
Calculating Ewald energy for ionic configuration
              Ewald: real-space energy =     359.826811 eV
        Ewald: reciprocal-space energy =      93.920754 eV
         Ewald: (sum_charge)**2 Energy =     459.468501 eV
         Ewald: (sum_charge**2) Energy =     769.135141 eV
                          Ewald Energy =    -774.856077 eV
Calculating non-Coulombic energy for ionic configuration
Symmetrising density
Calculating local potential
Calculating Hubbard U potential
 Density matrix in cubic harmonics:
     1.0000     0.0000     0.0000     0.0000     0.0000
     0.0000     0.0000     0.0000     0.0000     0.0000
     0.0000     0.0000     0.0000     0.0000     0.0000
     0.0000     0.0000     0.0000     0.0000     0.0000
     0.0000     0.0000     0.0000     0.0000     0.0000
     0.0000     0.0000     0.0000     0.0000     0.0000
     0.0000     0.0000     0.0000     1.0000     0.0000
     0.0000     0.0000     0.0000     0.0000     0.0000
     0.0000     0.0000     0.0000     0.0000     1.0000
     0.0000     0.0000     0.0000     0.0000     0.0000
 Hermiticity:        (-4.44089209850062616E-016,0.0000000000000000)
 Density matrix in cubic harmonics:
     1.0000     0.0000     0.0000     0.0000     0.0000
     0.0000     0.0000     0.0000     0.0000     0.0000
     0.0000     0.0000     0.0000     0.0000     0.0000
     0.0000     0.0000     0.0000     0.0000     0.0000
     0.0000     0.0000     0.0000     0.0000     0.0000
     0.0000     0.0000     0.0000     0.0000     0.0000
     0.0000     0.0000     0.0000     1.0000     0.0000
     0.0000     0.0000     0.0000     0.0000     0.0000
     0.0000     0.0000     0.0000     0.0000     1.0000
     0.0000     0.0000     0.0000     0.0000     0.0000
 Hermiticity:        (-4.44089209850062616E-016,0.0000000000000000)
Calculating non-local weights
Calculating KE and non-local eigenvalues to find total energy
 
Init
Exchange-correlation energy      =      -499.07913191541501874 eV
+Hartree energy                  =      2055.86480228865912068 eV
+Local pseudopotential energy    =     -5072.04198973965321784 eV
----------------------------------
Potential energy (total)         =     -3515.25631936638410480 eV
                                  
+Hubbard U energy                =         0.47999999999999998 eV
+Kinetic energy                  =       776.91409201055114409 eV
+Non-local energy                =       152.02656221898419631 eV
+Electronic entropy term (-TS)   =         0.00000000000000000 eV
+Ewald energy (const)            =      -774.85607651874397561 eV
+non-Coulombic energy (const)    =        13.80612138473854067 eV
----------------------------------
Total free energy (E-TS)         =     -3346.88562027085390582 eV
 
NB est. 0K energy (E-0.5TS)      =     -3346.88562027085390582 eV
 
(XC correction to eigenvalue sum =        44.01690523340165129 eV)
(Hubbard U correction to eigenvalu         0.00000003000000000 eV)
 
------------------------------------------------------------------------ <-- SCF
SCF loop      Energy           Fermi           Energy gain       Timer   <-- SCF
                               energy          per atom          (sec)   <-- SCF
------------------------------------------------------------------------ <-- SCF
Initial  -3.34688562E+003  0.00000000E+000                        14.61  <-- SCF
Starting SCF cycle     1 of up to    30
 no. bands in each block=           8
Kinetic eigenvalue #   1 =     0.38348966E+02
Kinetic eigenvalue #   2 =     0.39990483E+02
Kinetic eigenvalue #   3 =     0.39990481E+02
Kinetic eigenvalue #   4 =     0.39595183E+02
Kinetic eigenvalue #   5 =     0.25112526E+02
Kinetic eigenvalue #   6 =     0.42186730E+02
Kinetic eigenvalue #   7 =     0.37391956E+02
Kinetic eigenvalue #   8 =     0.37412407E+02
Kinetic eigenvalue #   9 =     0.37900587E+02
Kinetic eigenvalue #  10 =     0.37455926E+02
Kinetic eigenvalue #  11 =     0.23372304E+02
Kinetic eigenvalue #  12 =     0.38336692E+02
Kinetic eigenvalue #  13 =     0.38452582E+02
Kinetic eigenvalue #  14 =     0.24719286E+02
Kinetic eigenvalue #  15 =     0.13655775E+02
Kinetic eigenvalue #  16 =     0.14273377E+02
Kinetic eigenvalue #  17 =     0.77296045E+01
 Calculating the R matrix for the precon Sinv operator
 Diagonalising expanded subspace
 Copying updated data back
eigenvalue    1 init= -83.96     fin= -83.96     change= 0.2190E-08
eigenvalue    2 init= -53.14     fin= -53.14     change= 0.4133E-10
eigenvalue    3 init= -53.14     fin= -53.14     change= 0.3891E-10
eigenvalue    4 init= -52.98     fin= -52.98     change= 0.3588E-09
eigenvalue    5 init= -20.21     fin= -20.21     change= 0.6920E-06
eigenvalue    6 init= -7.608     fin= -7.608     change= 0.4777E-05
eigenvalue    7 init= -7.179     fin= -7.179     change= 0.9402E-06
eigenvalue    8 init= -7.179     fin= -7.179     change= 0.9155E-06
 Checking convergence criteria
 Diagonalising expanded subspace
 Copying updated data back
eigenvalue    1 init= -83.96     fin= -83.96     change= 0.2202E-08
eigenvalue    2 init= -53.14     fin= -53.14     change= 0.4132E-10
eigenvalue    3 init= -53.14     fin= -53.14     change= 0.3885E-10
eigenvalue    4 init= -52.98     fin= -52.98     change= 0.3667E-09
eigenvalue    5 init= -20.21     fin= -20.21     change= 0.7187E-06
eigenvalue    6 init= -7.608     fin= -7.608     change= 0.5088E-05
eigenvalue    7 init= -7.179     fin= -7.179     change= 0.9418E-06
eigenvalue    8 init= -7.179     fin= -7.179     change= 0.9156E-06
 Checking convergence criteria
 Diagonalising expanded subspace
 Copying updated data back
eigenvalue    9 init= -5.770     fin= -5.770     change= 0.2367E-07
eigenvalue   10 init= -5.601     fin= -5.601     change= 0.1088E-06
eigenvalue   11 init= -4.218     fin= -4.218     change= 0.2927E-05
eigenvalue   12 init= -3.621     fin= -3.621     change= 0.7484E-06
eigenvalue   13 init= -3.593     fin= -3.593     change= 0.1280E-05
eigenvalue   14 init= -1.768     fin= -1.768     change= 0.2760E-05
eigenvalue   15 init= 0.3025     fin= 0.3025     change= 0.2474E-06
eigenvalue   16 init= 0.4328     fin= 0.4328     change= 0.5741E-07
 Checking convergence criteria
 Diagonalising expanded subspace
 Copying updated data back
eigenvalue    9 init= -5.770     fin= -5.770     change= 0.2367E-07
eigenvalue   10 init= -5.601     fin= -5.601     change= 0.1124E-06
eigenvalue   11 init= -4.218     fin= -4.218     change= 0.3234E-05
eigenvalue   12 init= -3.621     fin= -3.621     change= 0.7484E-06
eigenvalue   13 init= -3.593     fin= -3.593     change= 0.1413E-05
eigenvalue   14 init= -1.768     fin= -1.768     change= 0.3133E-05
eigenvalue   15 init= 0.3025     fin= 0.3025     change= 0.3485E-06
eigenvalue   16 init= 0.4328     fin= 0.4328     change= 0.5741E-07
 Checking convergence criteria
 Diagonalising expanded subspace
 Copying updated data back
eigenvalue   17 init=  2.641     fin=  2.641     change= 0.3853E-06
 Checking convergence criteria
 no. bands in each block=           8
Kinetic eigenvalue #   1 =     0.38348939E+02
Kinetic eigenvalue #   2 =     0.39990472E+02
Kinetic eigenvalue #   3 =     0.39990660E+02
Kinetic eigenvalue #   4 =     0.39595175E+02
Kinetic eigenvalue #   5 =     0.25099043E+02
Kinetic eigenvalue #   6 =     0.42122292E+02
Kinetic eigenvalue #   7 =     0.37333011E+02
Kinetic eigenvalue #   8 =     0.37797759E+02
Kinetic eigenvalue #   9 =     0.37459158E+02
Kinetic eigenvalue #  10 =     0.37726085E+02
Kinetic eigenvalue #  11 =     0.20289061E+02
Kinetic eigenvalue #  12 =     0.37545413E+02
Kinetic eigenvalue #  13 =     0.41168583E+02
Kinetic eigenvalue #  14 =     0.25570923E+02
Kinetic eigenvalue #  15 =     0.13556301E+02
Kinetic eigenvalue #  16 =     0.80528776E+01
Kinetic eigenvalue #  17 =     0.17119358E+02
 Calculating the R matrix for the precon Sinv operator
 Diagonalising expanded subspace
 Copying updated data back
eigenvalue    1 init= -83.96     fin= -83.96     change= 0.2329E-08
eigenvalue    2 init= -53.14     fin= -53.14     change= 0.3994E-10
eigenvalue    3 init= -53.14     fin= -53.14     change= 0.4017E-10
eigenvalue    4 init= -52.98     fin= -52.98     change= 0.3196E-09
eigenvalue    5 init= -20.21     fin= -20.21     change= 0.6206E-06
eigenvalue    6 init= -7.612     fin= -7.612     change= 0.4270E-05
eigenvalue    7 init= -7.183     fin= -7.183     change= 0.9975E-06
eigenvalue    8 init= -7.148     fin= -7.148     change= 0.5553E-06
 Checking convergence criteria
 Diagonalising expanded subspace
 Copying updated data back
eigenvalue    1 init= -83.96     fin= -83.96     change= 0.2355E-08
eigenvalue    2 init= -53.14     fin= -53.14     change= 0.3994E-10
eigenvalue    3 init= -53.14     fin= -53.14     change= 0.4017E-10
eigenvalue    4 init= -52.98     fin= -52.98     change= 0.3254E-09
eigenvalue    5 init= -20.21     fin= -20.21     change= 0.6433E-06
eigenvalue    6 init= -7.612     fin= -7.612     change= 0.4542E-05
eigenvalue    7 init= -7.183     fin= -7.183     change= 0.1004E-05
eigenvalue    8 init= -7.148     fin= -7.148     change= 0.5555E-06
 Checking convergence criteria
 Diagonalising expanded subspace
 Copying updated data back
eigenvalue    9 init= -5.803     fin= -5.803     change= 0.3994E-07
eigenvalue   10 init= -5.583     fin= -5.583     change= 0.7238E-07
eigenvalue   11 init= -4.473     fin= -4.473     change= 0.2411E-05
eigenvalue   12 init= -3.641     fin= -3.641     change= 0.1034E-05
eigenvalue   13 init= -3.491     fin= -3.491     change= 0.4134E-06
eigenvalue   14 init= -1.957     fin= -1.957     change= 0.2831E-05
eigenvalue   15 init= -.6301E-01 fin= -.6301E-01 change= 0.2585E-06
eigenvalue   16 init=  2.025     fin=  2.025     change= 0.1158E-05
 Checking convergence criteria
 Diagonalising expanded subspace
 Copying updated data back
eigenvalue    9 init= -5.803     fin= -5.803     change= 0.4105E-07
eigenvalue   10 init= -5.583     fin= -5.583     change= 0.7238E-07
eigenvalue   11 init= -4.473     fin= -4.473     change= 0.2692E-05
eigenvalue   12 init= -3.641     fin= -3.641     change= 0.1154E-05
eigenvalue   13 init= -3.491     fin= -3.491     change= 0.4136E-06
eigenvalue   14 init= -1.957     fin= -1.957     change= 0.3254E-05
eigenvalue   15 init= -.6301E-01 fin= -.6301E-01 change= 0.3577E-06
eigenvalue   16 init=  2.025     fin=  2.025     change= 0.2000E-05
 Checking convergence criteria
 Diagonalising expanded subspace
 Copying updated data back
eigenvalue   17 init=  2.483     fin=  2.483     change= 0.2010E-07
 Checking convergence criteria
 no. bands in each block=           8
Kinetic eigenvalue #   1 =     0.38348954E+02
Kinetic eigenvalue #   2 =     0.39990472E+02
Kinetic eigenvalue #   3 =     0.39990660E+02
Kinetic eigenvalue #   4 =     0.39595175E+02
Kinetic eigenvalue #   5 =     0.25099043E+02
Kinetic eigenvalue #   6 =     0.42122290E+02
Kinetic eigenvalue #   7 =     0.37333009E+02
Kinetic eigenvalue #   8 =     0.37797753E+02
Kinetic eigenvalue #   9 =     0.37459157E+02
Kinetic eigenvalue #  10 =     0.37726085E+02
Kinetic eigenvalue #  11 =     0.20289048E+02
Kinetic eigenvalue #  12 =     0.37545412E+02
Kinetic eigenvalue #  13 =     0.41168606E+02
Kinetic eigenvalue #  14 =     0.25570897E+02
Kinetic eigenvalue #  15 =     0.13556246E+02
Kinetic eigenvalue #  16 =     0.80526225E+01
Kinetic eigenvalue #  17 =     0.17119021E+02
 Calculating the R matrix for the precon Sinv operator
 Diagonalising expanded subspace
 Copying updated data back
eigenvalue    1 init= -83.96     fin= -83.96     change= 0.2195E-08
eigenvalue    2 init= -53.14     fin= -53.14     change= 0.3987E-10
eigenvalue    3 init= -53.14     fin= -53.14     change= 0.4007E-10
eigenvalue    4 init= -52.98     fin= -52.98     change= 0.3195E-09
eigenvalue    5 init= -20.21     fin= -20.21     change= 0.6209E-06
eigenvalue    6 init= -7.612     fin= -7.612     change= 0.4275E-05
eigenvalue    7 init= -7.183     fin= -7.183     change= 0.9976E-06
eigenvalue    8 init= -7.148     fin= -7.148     change= 0.5559E-06
 Checking convergence criteria
 Diagonalising expanded subspace
 Copying updated data back
eigenvalue    1 init= -83.96     fin= -83.96     change= 0.2212E-08
eigenvalue    2 init= -53.14     fin= -53.14     change= 0.3988E-10
eigenvalue    3 init= -53.14     fin= -53.14     change= 0.4008E-10
eigenvalue    4 init= -52.98     fin= -52.98     change= 0.3251E-09
eigenvalue    5 init= -20.21     fin= -20.21     change= 0.6434E-06
eigenvalue    6 init= -7.612     fin= -7.612     change= 0.4544E-05
eigenvalue    7 init= -7.183     fin= -7.183     change= 0.1004E-05
eigenvalue    8 init= -7.148     fin= -7.148     change= 0.5560E-06
 Checking convergence criteria
 Diagonalising expanded subspace
 Copying updated data back
eigenvalue    9 init= -5.803     fin= -5.803     change= 0.3992E-07
eigenvalue   10 init= -5.583     fin= -5.583     change= 0.7232E-07
eigenvalue   11 init= -4.473     fin= -4.473     change= 0.2410E-05
eigenvalue   12 init= -3.641     fin= -3.641     change= 0.1038E-05
eigenvalue   13 init= -3.491     fin= -3.491     change= 0.4170E-06
eigenvalue   14 init= -1.957     fin= -1.957     change= 0.2836E-05
eigenvalue   15 init= -.6301E-01 fin= -.6301E-01 change= 0.2491E-06
eigenvalue   16 init=  2.025     fin=  2.025     change= 0.1129E-05
 Checking convergence criteria
 Diagonalising expanded subspace
 Copying updated data back
eigenvalue    9 init= -5.803     fin= -5.803     change= 0.4100E-07
eigenvalue   10 init= -5.583     fin= -5.583     change= 0.7232E-07
eigenvalue   11 init= -4.473     fin= -4.473     change= 0.2690E-05
eigenvalue   12 init= -3.641     fin= -3.641     change= 0.1157E-05
eigenvalue   13 init= -3.491     fin= -3.491     change= 0.4171E-06
eigenvalue   14 init= -1.957     fin= -1.957     change= 0.3260E-05
eigenvalue   15 init= -.6301E-01 fin= -.6301E-01 change= 0.3352E-06
eigenvalue   16 init=  2.025     fin=  2.025     change= 0.1871E-05
 Checking convergence criteria
 Diagonalising expanded subspace
 Copying updated data back
eigenvalue   17 init=  2.483     fin=  2.483     change= 0.6041E-07
 Checking convergence criteria
 no. bands in each block=           8
Kinetic eigenvalue #   1 =     0.38348971E+02
Kinetic eigenvalue #   2 =     0.39990483E+02
Kinetic eigenvalue #   3 =     0.39990481E+02
Kinetic eigenvalue #   4 =     0.39595183E+02
Kinetic eigenvalue #   5 =     0.25112526E+02
Kinetic eigenvalue #   6 =     0.42186747E+02
Kinetic eigenvalue #   7 =     0.37391950E+02
Kinetic eigenvalue #   8 =     0.37412406E+02
Kinetic eigenvalue #   9 =     0.37900587E+02
Kinetic eigenvalue #  10 =     0.37455932E+02
Kinetic eigenvalue #  11 =     0.23372275E+02
Kinetic eigenvalue #  12 =     0.38336693E+02
Kinetic eigenvalue #  13 =     0.38452615E+02
Kinetic eigenvalue #  14 =     0.24719402E+02
Kinetic eigenvalue #  15 =     0.13655755E+02
Kinetic eigenvalue #  16 =     0.14273376E+02
Kinetic eigenvalue #  17 =     0.77276904E+01
 Calculating the R matrix for the precon Sinv operator
 Diagonalising expanded subspace
 Copying updated data back
eigenvalue    1 init= -83.96     fin= -83.96     change= 0.2156E-08
eigenvalue    2 init= -53.14     fin= -53.14     change= 0.4105E-10
eigenvalue    3 init= -53.14     fin= -53.14     change= 0.3884E-10
eigenvalue    4 init= -52.98     fin= -52.98     change= 0.3586E-09
eigenvalue    5 init= -20.21     fin= -20.21     change= 0.6932E-06
eigenvalue    6 init= -7.608     fin= -7.608     change= 0.4780E-05
eigenvalue    7 init= -7.179     fin= -7.179     change= 0.9409E-06
eigenvalue    8 init= -7.179     fin= -7.179     change= 0.9158E-06
 Checking convergence criteria
 Diagonalising expanded subspace
 Copying updated data back
eigenvalue    1 init= -83.96     fin= -83.96     change= 0.2168E-08
eigenvalue    2 init= -53.14     fin= -53.14     change= 0.4107E-10
eigenvalue    3 init= -53.14     fin= -53.14     change= 0.3886E-10
eigenvalue    4 init= -52.98     fin= -52.98     change= 0.3664E-09
eigenvalue    5 init= -20.21     fin= -20.21     change= 0.7200E-06
eigenvalue    6 init= -7.608     fin= -7.608     change= 0.5091E-05
eigenvalue    7 init= -7.179     fin= -7.179     change= 0.9419E-06
eigenvalue    8 init= -7.179     fin= -7.179     change= 0.9158E-06
 Checking convergence criteria
 Diagonalising expanded subspace
 Copying updated data back
eigenvalue    9 init= -5.770     fin= -5.770     change= 0.2367E-07
eigenvalue   10 init= -5.601     fin= -5.601     change= 0.1093E-06
eigenvalue   11 init= -4.218     fin= -4.218     change= 0.2943E-05
eigenvalue   12 init= -3.621     fin= -3.621     change= 0.7484E-06
eigenvalue   13 init= -3.593     fin= -3.593     change= 0.1289E-05
eigenvalue   14 init= -1.768     fin= -1.768     change= 0.2838E-05
eigenvalue   15 init= 0.3025     fin= 0.3025     change= 0.2685E-06
eigenvalue   16 init= 0.4328     fin= 0.4328     change= 0.5734E-07
 Checking convergence criteria
 Diagonalising expanded subspace
 Copying updated data back
eigenvalue    9 init= -5.770     fin= -5.770     change= 0.2367E-07
eigenvalue   10 init= -5.601     fin= -5.601     change= 0.1132E-06
eigenvalue   11 init= -4.218     fin= -4.218     change= 0.3229E-05
eigenvalue   12 init= -3.621     fin= -3.621     change= 0.7484E-06
eigenvalue   13 init= -3.593     fin= -3.593     change= 0.1424E-05
eigenvalue   14 init= -1.768     fin= -1.768     change= 0.3203E-05
eigenvalue   15 init= 0.3025     fin= 0.3025     change= 0.3868E-06
eigenvalue   16 init= 0.4328     fin= 0.4328     change= 0.5734E-07
 Checking convergence criteria
 Diagonalising expanded subspace
 Copying updated data back
eigenvalue   17 init=  2.641     fin=  2.641     change= 0.2777E-06
 Checking convergence criteria
 no. bands in each block=           8
Kinetic eigenvalue #   1 =     0.38348960E+02
Kinetic eigenvalue #   2 =     0.39990472E+02
Kinetic eigenvalue #   3 =     0.39990660E+02
Kinetic eigenvalue #   4 =     0.39595175E+02
Kinetic eigenvalue #   5 =     0.25099043E+02
Kinetic eigenvalue #   6 =     0.42122289E+02
Kinetic eigenvalue #   7 =     0.37333012E+02
Kinetic eigenvalue #   8 =     0.37797753E+02
Kinetic eigenvalue #   9 =     0.37459155E+02
Kinetic eigenvalue #  10 =     0.37726085E+02
Kinetic eigenvalue #  11 =     0.20289011E+02
Kinetic eigenvalue #  12 =     0.37545438E+02
Kinetic eigenvalue #  13 =     0.41168603E+02
Kinetic eigenvalue #  14 =     0.25571076E+02
Kinetic eigenvalue #  15 =     0.13556085E+02
Kinetic eigenvalue #  16 =     0.80522571E+01
Kinetic eigenvalue #  17 =     0.17118951E+02
 Calculating the R matrix for the precon Sinv operator
 Diagonalising expanded subspace
 Copying updated data back
eigenvalue    1 init= -83.96     fin= -83.96     change= 0.2169E-08
eigenvalue    2 init= -53.14     fin= -53.14     change= 0.3967E-10
eigenvalue    3 init= -53.14     fin= -53.14     change= 0.4036E-10
eigenvalue    4 init= -52.98     fin= -52.98     change= 0.3193E-09
eigenvalue    5 init= -20.21     fin= -20.21     change= 0.6208E-06
eigenvalue    6 init= -7.612     fin= -7.612     change= 0.4274E-05
eigenvalue    7 init= -7.183     fin= -7.183     change= 0.9971E-06
eigenvalue    8 init= -7.148     fin= -7.148     change= 0.5559E-06
 Checking convergence criteria
 Diagonalising expanded subspace
 Copying updated data back
eigenvalue    1 init= -83.96     fin= -83.96     change= 0.2186E-08
eigenvalue    2 init= -53.14     fin= -53.14     change= 0.3970E-10
eigenvalue    3 init= -53.14     fin= -53.14     change= 0.4036E-10
eigenvalue    4 init= -52.98     fin= -52.98     change= 0.3250E-09
eigenvalue    5 init= -20.21     fin= -20.21     change= 0.6434E-06
eigenvalue    6 init= -7.612     fin= -7.612     change= 0.4544E-05
eigenvalue    7 init= -7.183     fin= -7.183     change= 0.1003E-05
eigenvalue    8 init= -7.148     fin= -7.148     change= 0.5560E-06
 Checking convergence criteria
 Diagonalising expanded subspace
 Copying updated data back
eigenvalue    9 init= -5.803     fin= -5.803     change= 0.3994E-07
eigenvalue   10 init= -5.583     fin= -5.583     change= 0.7240E-07
eigenvalue   11 init= -4.473     fin= -4.473     change= 0.2404E-05
eigenvalue   12 init= -3.641     fin= -3.641     change= 0.1046E-05
eigenvalue   13 init= -3.491     fin= -3.491     change= 0.4157E-06
eigenvalue   14 init= -1.957     fin= -1.957     change= 0.2873E-05
eigenvalue   15 init= -.6301E-01 fin= -.6301E-01 change= 0.2302E-06
eigenvalue   16 init=  2.025     fin=  2.025     change= 0.9997E-06
 Checking convergence criteria
 Diagonalising expanded subspace
 Copying updated data back
eigenvalue    9 init= -5.803     fin= -5.803     change= 0.4096E-07
eigenvalue   10 init= -5.583     fin= -5.583     change= 0.7240E-07
eigenvalue   11 init= -4.473     fin= -4.473     change= 0.2649E-05
eigenvalue   12 init= -3.641     fin= -3.641     change= 0.1164E-05
eigenvalue   13 init= -3.491     fin= -3.491     change= 0.4158E-06
eigenvalue   14 init= -1.957     fin= -1.957     change= 0.3255E-05
eigenvalue   15 init= -.6301E-01 fin= -.6301E-01 change= 0.2883E-06
eigenvalue   16 init=  2.025     fin=  2.025     change= 0.1480E-05
 Checking convergence criteria
 Diagonalising expanded subspace
 Copying updated data back
eigenvalue   17 init=  2.483     fin=  2.483     change= 0.4611E-07
 Checking convergence criteria
 no. bands in each block=           8
Kinetic eigenvalue #   1 =     0.37872827E+02
Kinetic eigenvalue #   2 =     0.39259389E+02
Kinetic eigenvalue #   3 =     0.39828255E+02
Kinetic eigenvalue #   4 =     0.39828260E+02
Kinetic eigenvalue #   5 =     0.25186723E+02
Kinetic eigenvalue #   6 =     0.43805622E+02
Kinetic eigenvalue #   7 =     0.37875739E+02
Kinetic eigenvalue #   8 =     0.37953623E+02
Kinetic eigenvalue #   9 =     0.36819316E+02
Kinetic eigenvalue #  10 =     0.32265673E+02
Kinetic eigenvalue #  11 =     0.22439585E+02
Kinetic eigenvalue #  12 =     0.36089903E+02
Kinetic eigenvalue #  13 =     0.36345366E+02
Kinetic eigenvalue #  14 =     0.23975481E+02
Kinetic eigenvalue #  15 =     0.13730900E+02
Kinetic eigenvalue #  16 =     0.14861435E+02
Kinetic eigenvalue #  17 =     0.80852684E+01
 Calculating the R matrix for the precon Sinv operator
 Diagonalising expanded subspace
 Copying updated data back
eigenvalue    1 init= -80.00     fin= -80.00     change= 0.1486E-08
eigenvalue    2 init= -49.54     fin= -49.54     change= 0.1034E-08
eigenvalue    3 init= -49.09     fin= -49.09     change= 0.3651E-10
eigenvalue    4 init= -49.09     fin= -49.09     change= 0.3102E-10
eigenvalue    5 init= -19.75     fin= -19.75     change= 0.1203E-05
eigenvalue    6 init= -6.608     fin= -6.608     change= 0.5170E-05
eigenvalue    7 init= -5.829     fin= -5.829     change= 0.9312E-06
eigenvalue    8 init= -5.827     fin= -5.827     change= 0.5265E-06
 Checking convergence criteria
 Diagonalising expanded subspace
 Copying updated data back
eigenvalue    1 init= -80.00     fin= -80.00     change= 0.1508E-08
eigenvalue    2 init= -49.54     fin= -49.54     change= 0.1094E-08
eigenvalue    3 init= -49.09     fin= -49.09     change= 0.3652E-10
eigenvalue    4 init= -49.09     fin= -49.09     change= 0.3103E-10
eigenvalue    5 init= -19.75     fin= -19.75     change= 0.1263E-05
eigenvalue    6 init= -6.608     fin= -6.608     change= 0.5472E-05
eigenvalue    7 init= -5.829     fin= -5.829     change= 0.9349E-06
eigenvalue    8 init= -5.827     fin= -5.827     change= 0.5265E-06
 Checking convergence criteria
 Diagonalising expanded subspace
 Copying updated data back
eigenvalue    9 init= -2.074     fin= -2.074     change= 0.9393E-06
eigenvalue   10 init= -1.979     fin= -1.979     change= 0.5157E-05
eigenvalue   11 init= -1.907     fin= -1.907     change= 0.8590E-05
eigenvalue   12 init= -1.092     fin= -1.092     change= 0.1502E-05
eigenvalue   13 init= -1.064     fin= -1.064     change= 0.5623E-05
eigenvalue   14 init= -.1944     fin= -.1944     change= 0.1017E-04
eigenvalue   15 init=  1.618     fin=  1.618     change= 0.9827E-06
eigenvalue   16 init=  1.850     fin=  1.850     change= 0.2857E-06
 Checking convergence criteria
 Diagonalising expanded subspace
 Copying updated data back
eigenvalue    9 init= -2.074     fin= -2.074     change= 0.9438E-06
eigenvalue   10 init= -1.979     fin= -1.979     change= 0.5681E-05
eigenvalue   11 init= -1.907     fin= -1.907     change= 0.9420E-05
eigenvalue   12 init= -1.092     fin= -1.092     change= 0.1694E-05
eigenvalue   13 init= -1.064     fin= -1.064     change= 0.6314E-05
eigenvalue   14 init= -.1944     fin= -.1944     change= 0.1153E-04
eigenvalue   15 init=  1.618     fin=  1.618     change= 0.1407E-05
eigenvalue   16 init=  1.850     fin=  1.850     change= 0.3882E-06
 Checking convergence criteria
 Diagonalising expanded subspace
 Copying updated data back
eigenvalue   17 init=  3.134     fin=  3.134     change= 0.1395E-05
 Checking convergence criteria
 Diagonalising expanded subspace
 Copying updated data back
eigenvalue   17 init=  3.134     fin=  3.134     change= 0.3550E-05
 Checking convergence criteria
 Diagonalising expanded subspace
 Copying updated data back
eigenvalue   17 init=  3.134     fin=  3.134     change= 0.5084E-05
 Checking convergence criteria
 Diagonalising expanded subspace
 Copying updated data back
eigenvalue   17 init=  3.134     fin=  3.134     change= 0.5730E-05
 Checking convergence criteria
 no. bands in each block=           8
Kinetic eigenvalue #   1 =     0.37872752E+02
Kinetic eigenvalue #   2 =     0.39259377E+02
Kinetic eigenvalue #   3 =     0.39828243E+02
Kinetic eigenvalue #   4 =     0.39828505E+02
Kinetic eigenvalue #   5 =     0.25173050E+02
Kinetic eigenvalue #   6 =     0.43723010E+02
Kinetic eigenvalue #   7 =     0.37749840E+02
Kinetic eigenvalue #   8 =     0.38728885E+02
Kinetic eigenvalue #   9 =     0.19304159E+02
Kinetic eigenvalue #  10 =     0.31832881E+02
Kinetic eigenvalue #  11 =     0.36757792E+02
Kinetic eigenvalue #  12 =     0.34455454E+02
Kinetic eigenvalue #  13 =     0.39782238E+02
Kinetic eigenvalue #  14 =     0.24529100E+02
Kinetic eigenvalue #  15 =     0.14893019E+02
Kinetic eigenvalue #  16 =     0.89241411E+01
Kinetic eigenvalue #  17 =     0.16019077E+02
 Calculating the R matrix for the precon Sinv operator
 Diagonalising expanded subspace
 Copying updated data back
eigenvalue    1 init= -80.00     fin= -80.00     change= 0.1642E-08
eigenvalue    2 init= -49.54     fin= -49.54     change= 0.1037E-08
eigenvalue    3 init= -49.09     fin= -49.09     change= 0.3528E-10
eigenvalue    4 init= -49.09     fin= -49.09     change= 0.3308E-10
eigenvalue    5 init= -19.75     fin= -19.75     change= 0.1200E-05
eigenvalue    6 init= -6.613     fin= -6.613     change= 0.5151E-05
eigenvalue    7 init= -5.837     fin= -5.837     change= 0.6674E-06
eigenvalue    8 init= -5.771     fin= -5.771     change= 0.4270E-06
 Checking convergence criteria
 Diagonalising expanded subspace
 Copying updated data back
eigenvalue    1 init= -80.00     fin= -80.00     change= 0.1668E-08
eigenvalue    2 init= -49.54     fin= -49.54     change= 0.1100E-08
eigenvalue    3 init= -49.09     fin= -49.09     change= 0.3530E-10
eigenvalue    4 init= -49.09     fin= -49.09     change= 0.3307E-10
eigenvalue    5 init= -19.75     fin= -19.75     change= 0.1268E-05
eigenvalue    6 init= -6.613     fin= -6.613     change= 0.5558E-05
eigenvalue    7 init= -5.837     fin= -5.837     change= 0.6759E-06
eigenvalue    8 init= -5.771     fin= -5.771     change= 0.4277E-06
 Checking convergence criteria
 Diagonalising expanded subspace
 Copying updated data back
eigenvalue    9 init= -2.401     fin= -2.401     change= 0.7035E-05
eigenvalue   10 init= -2.073     fin= -2.073     change= 0.2786E-05
eigenvalue   11 init= -1.891     fin= -1.891     change= 0.2584E-05
eigenvalue   12 init= -1.135     fin= -1.135     change= 0.3622E-05
eigenvalue   13 init= -.9420     fin= -.9420     change= 0.1215E-05
eigenvalue   14 init= -.3872     fin= -.3873     change= 0.1274E-04
eigenvalue   15 init=  1.228     fin=  1.228     change= 0.5554E-06
eigenvalue   16 init=  2.539     fin=  2.539     change= 0.4466E-05
 Checking convergence criteria
 Diagonalising expanded subspace
 Copying updated data back
eigenvalue    9 init= -2.401     fin= -2.401     change= 0.7774E-05
eigenvalue   10 init= -2.073     fin= -2.073     change= 0.3004E-05
eigenvalue   11 init= -1.891     fin= -1.891     change= 0.2720E-05
eigenvalue   12 init= -1.135     fin= -1.135     change= 0.4098E-05
eigenvalue   13 init= -.9420     fin= -.9420     change= 0.1307E-05
eigenvalue   14 init= -.3872     fin= -.3873     change= 0.1469E-04
eigenvalue   15 init=  1.228     fin=  1.228     change= 0.7201E-06
eigenvalue   16 init=  2.539     fin=  2.539     change= 0.6638E-05
 Checking convergence criteria
 Diagonalising expanded subspace
 Copying updated data back
eigenvalue    9 init= -2.401     fin= -2.401     change= 0.7793E-05
eigenvalue   10 init= -2.073     fin= -2.073     change= 0.3005E-05
eigenvalue   11 init= -1.891     fin= -1.891     change= 0.2720E-05
eigenvalue   12 init= -1.135     fin= -1.135     change= 0.4133E-05
eigenvalue   13 init= -.9420     fin= -.9420     change= 0.1312E-05
eigenvalue   14 init= -.3872     fin= -.3873     change= 0.1480E-04
eigenvalue   15 init=  1.228     fin=  1.228     change= 0.7505E-06
eigenvalue   16 init=  2.539     fin=  2.539     change= 0.7287E-05
 Checking convergence criteria
 Diagonalising expanded subspace
 Copying updated data back
eigenvalue   17 init=  4.242     fin=  4.242     change= 0.2470E-06
 Checking convergence criteria
 no. bands in each block=           8
Kinetic eigenvalue #   1 =     0.37872751E+02
Kinetic eigenvalue #   2 =     0.39259377E+02
Kinetic eigenvalue #   3 =     0.39828243E+02
Kinetic eigenvalue #   4 =     0.39828505E+02
Kinetic eigenvalue #   5 =     0.25173050E+02
Kinetic eigenvalue #   6 =     0.43723008E+02
Kinetic eigenvalue #   7 =     0.37749840E+02
Kinetic eigenvalue #   8 =     0.38728884E+02
Kinetic eigenvalue #   9 =     0.19304442E+02
Kinetic eigenvalue #  10 =     0.31832881E+02
Kinetic eigenvalue #  11 =     0.36757791E+02
Kinetic eigenvalue #  12 =     0.34455446E+02
Kinetic eigenvalue #  13 =     0.39782223E+02
Kinetic eigenvalue #  14 =     0.24529668E+02
Kinetic eigenvalue #  15 =     0.14893033E+02
Kinetic eigenvalue #  16 =     0.89240129E+01
Kinetic eigenvalue #  17 =     0.16026346E+02
 Calculating the R matrix for the precon Sinv operator
 Diagonalising expanded subspace
 Copying updated data back
eigenvalue    1 init= -80.00     fin= -80.00     change= 0.1644E-08
eigenvalue    2 init= -49.54     fin= -49.54     change= 0.1038E-08
eigenvalue    3 init= -49.09     fin= -49.09     change= 0.3530E-10
eigenvalue    4 init= -49.09     fin= -49.09     change= 0.3304E-10
eigenvalue    5 init= -19.75     fin= -19.75     change= 0.1200E-05
eigenvalue    6 init= -6.613     fin= -6.613     change= 0.5153E-05
eigenvalue    7 init= -5.837     fin= -5.837     change= 0.6677E-06
eigenvalue    8 init= -5.771     fin= -5.771     change= 0.4243E-06
 Checking convergence criteria
 Diagonalising expanded subspace
 Copying updated data back
eigenvalue    1 init= -80.00     fin= -80.00     change= 0.1669E-08
eigenvalue    2 init= -49.54     fin= -49.54     change= 0.1100E-08
eigenvalue    3 init= -49.09     fin= -49.09     change= 0.3536E-10
eigenvalue    4 init= -49.09     fin= -49.09     change= 0.3307E-10
eigenvalue    5 init= -19.75     fin= -19.75     change= 0.1269E-05
eigenvalue    6 init= -6.613     fin= -6.613     change= 0.5562E-05
eigenvalue    7 init= -5.837     fin= -5.837     change= 0.6762E-06
eigenvalue    8 init= -5.771     fin= -5.771     change= 0.4249E-06
 Checking convergence criteria
 Diagonalising expanded subspace
 Copying updated data back
eigenvalue    9 init= -2.401     fin= -2.401     change= 0.6952E-05
eigenvalue   10 init= -2.073     fin= -2.073     change= 0.2771E-05
eigenvalue   11 init= -1.891     fin= -1.891     change= 0.2583E-05
eigenvalue   12 init= -1.135     fin= -1.135     change= 0.3589E-05
eigenvalue   13 init= -.9420     fin= -.9420     change= 0.1201E-05
eigenvalue   14 init= -.3872     fin= -.3873     change= 0.1310E-04
eigenvalue   15 init=  1.228     fin=  1.228     change= 0.5254E-06
eigenvalue   16 init=  2.539     fin=  2.539     change= 0.4345E-05
 Checking convergence criteria
 Diagonalising expanded subspace
 Copying updated data back
eigenvalue    9 init= -2.401     fin= -2.401     change= 0.7682E-05
eigenvalue   10 init= -2.073     fin= -2.073     change= 0.2978E-05
eigenvalue   11 init= -1.891     fin= -1.891     change= 0.2720E-05
eigenvalue   12 init= -1.135     fin= -1.135     change= 0.4059E-05
eigenvalue   13 init= -.9420     fin= -.9420     change= 0.1291E-05
eigenvalue   14 init= -.3872     fin= -.3873     change= 0.1511E-04
eigenvalue   15 init=  1.228     fin=  1.228     change= 0.6709E-06
eigenvalue   16 init=  2.539     fin=  2.539     change= 0.6267E-05
 Checking convergence criteria
 Diagonalising expanded subspace
 Copying updated data back
eigenvalue    9 init= -2.401     fin= -2.401     change= 0.7703E-05
eigenvalue   10 init= -2.073     fin= -2.073     change= 0.2979E-05
eigenvalue   11 init= -1.891     fin= -1.891     change= 0.2720E-05
eigenvalue   12 init= -1.135     fin= -1.135     change= 0.4111E-05
eigenvalue   13 init= -.9420     fin= -.9420     change= 0.1295E-05
eigenvalue   14 init= -.3872     fin= -.3873     change= 0.1526E-04
eigenvalue   15 init=  1.228     fin=  1.228     change= 0.7080E-06
eigenvalue   16 init=  2.539     fin=  2.539     change= 0.6944E-05
 Checking convergence criteria
 Diagonalising expanded subspace
 Copying updated data back
eigenvalue   17 init=  4.242     fin=  4.242     change= 0.1150E-06
 Checking convergence criteria
 no. bands in each block=           8
Kinetic eigenvalue #   1 =     0.37872810E+02
Kinetic eigenvalue #   2 =     0.39259389E+02
Kinetic eigenvalue #   3 =     0.39828255E+02
Kinetic eigenvalue #   4 =     0.39828260E+02
Kinetic eigenvalue #   5 =     0.25186721E+02
Kinetic eigenvalue #   6 =     0.43805574E+02
Kinetic eigenvalue #   7 =     0.37875726E+02
Kinetic eigenvalue #   8 =     0.37953623E+02
Kinetic eigenvalue #   9 =     0.36819317E+02
Kinetic eigenvalue #  10 =     0.32265597E+02
Kinetic eigenvalue #  11 =     0.22439552E+02
Kinetic eigenvalue #  12 =     0.36089907E+02
Kinetic eigenvalue #  13 =     0.36345377E+02
Kinetic eigenvalue #  14 =     0.23975518E+02
Kinetic eigenvalue #  15 =     0.13729851E+02
Kinetic eigenvalue #  16 =     0.14861414E+02
Kinetic eigenvalue #  17 =     0.80823873E+01
 Calculating the R matrix for the precon Sinv operator
 Diagonalising expanded subspace
 Copying updated data back
eigenvalue    1 init= -80.00     fin= -80.00     change= 0.1541E-08
eigenvalue    2 init= -49.54     fin= -49.54     change= 0.1040E-08
eigenvalue    3 init= -49.09     fin= -49.09     change= 0.3642E-10
eigenvalue    4 init= -49.09     fin= -49.09     change= 0.3090E-10
eigenvalue    5 init= -19.75     fin= -19.75     change= 0.1200E-05
eigenvalue    6 init= -6.608     fin= -6.608     change= 0.5161E-05
eigenvalue    7 init= -5.829     fin= -5.829     change= 0.9372E-06
eigenvalue    8 init= -5.827     fin= -5.827     change= 0.5265E-06
 Checking convergence criteria
 Diagonalising expanded subspace
 Copying updated data back
eigenvalue    1 init= -80.00     fin= -80.00     change= 0.1568E-08
eigenvalue    2 init= -49.54     fin= -49.54     change= 0.1103E-08
eigenvalue    3 init= -49.09     fin= -49.09     change= 0.3648E-10
eigenvalue    4 init= -49.09     fin= -49.09     change= 0.3093E-10
eigenvalue    5 init= -19.75     fin= -19.75     change= 0.1262E-05
eigenvalue    6 init= -6.608     fin= -6.608     change= 0.5484E-05
eigenvalue    7 init= -5.829     fin= -5.829     change= 0.9402E-06
eigenvalue    8 init= -5.827     fin= -5.827     change= 0.5265E-06
 Checking convergence criteria
 Diagonalising expanded subspace
 Copying updated data back
eigenvalue    9 init= -2.074     fin= -2.074     change= 0.9395E-06
eigenvalue   10 init= -1.979     fin= -1.979     change= 0.5132E-05
eigenvalue   11 init= -1.907     fin= -1.907     change= 0.8606E-05
eigenvalue   12 init= -1.092     fin= -1.092     change= 0.1503E-05
eigenvalue   13 init= -1.064     fin= -1.064     change= 0.5651E-05
eigenvalue   14 init= -.1944     fin= -.1944     change= 0.1028E-04
eigenvalue   15 init=  1.618     fin=  1.618     change= 0.7545E-06
eigenvalue   16 init=  1.850     fin=  1.850     change= 0.2836E-06
 Checking convergence criteria
 Diagonalising expanded subspace
 Copying updated data back
eigenvalue    9 init= -2.074     fin= -2.074     change= 0.9441E-06
eigenvalue   10 init= -1.979     fin= -1.979     change= 0.5651E-05
eigenvalue   11 init= -1.907     fin= -1.907     change= 0.9384E-05
eigenvalue   12 init= -1.092     fin= -1.092     change= 0.1697E-05
eigenvalue   13 init= -1.064     fin= -1.064     change= 0.6319E-05
eigenvalue   14 init= -.1944     fin= -.1944     change= 0.1156E-04
eigenvalue   15 init=  1.618     fin=  1.618     change= 0.1038E-05
eigenvalue   16 init=  1.850     fin=  1.850     change= 0.3856E-06
 Checking convergence criteria
 Diagonalising expanded subspace
 Copying updated data back
eigenvalue   17 init=  3.134     fin=  3.134     change= 0.1042E-05
 Checking convergence criteria
 Diagonalising expanded subspace
 Copying updated data back
eigenvalue   17 init=  3.134     fin=  3.134     change= 0.3478E-05
 Checking convergence criteria
 Diagonalising expanded subspace
 Copying updated data back
eigenvalue   17 init=  3.134     fin=  3.134     change= 0.4584E-05
 Checking convergence criteria
 Diagonalising expanded subspace
 Copying updated data back
eigenvalue   17 init=  3.134     fin=  3.134     change= 0.5122E-05
 Checking convergence criteria
 no. bands in each block=           8
Kinetic eigenvalue #   1 =     0.37872752E+02
Kinetic eigenvalue #   2 =     0.39259377E+02
Kinetic eigenvalue #   3 =     0.39828243E+02
Kinetic eigenvalue #   4 =     0.39828505E+02
Kinetic eigenvalue #   5 =     0.25173050E+02
Kinetic eigenvalue #   6 =     0.43723007E+02
Kinetic eigenvalue #   7 =     0.37749840E+02
Kinetic eigenvalue #   8 =     0.38728886E+02
Kinetic eigenvalue #   9 =     0.19304417E+02
Kinetic eigenvalue #  10 =     0.31832909E+02
Kinetic eigenvalue #  11 =     0.36757792E+02
Kinetic eigenvalue #  12 =     0.34455431E+02
Kinetic eigenvalue #  13 =     0.39782232E+02
Kinetic eigenvalue #  14 =     0.24529650E+02
Kinetic eigenvalue #  15 =     0.14893062E+02
Kinetic eigenvalue #  16 =     0.89240042E+01
Kinetic eigenvalue #  17 =     0.16012492E+02
 Calculating the R matrix for the precon Sinv operator
 Diagonalising expanded subspace
 Copying updated data back
eigenvalue    1 init= -80.00     fin= -80.00     change= 0.1641E-08
eigenvalue    2 init= -49.54     fin= -49.54     change= 0.1037E-08
eigenvalue    3 init= -49.09     fin= -49.09     change= 0.3538E-10
eigenvalue    4 init= -49.09     fin= -49.09     change= 0.3313E-10
eigenvalue    5 init= -19.75     fin= -19.75     change= 0.1200E-05
eigenvalue    6 init= -6.613     fin= -6.613     change= 0.5151E-05
eigenvalue    7 init= -5.837     fin= -5.837     change= 0.6673E-06
eigenvalue    8 init= -5.771     fin= -5.771     change= 0.4290E-06
 Checking convergence criteria
 Diagonalising expanded subspace
 Copying updated data back
eigenvalue    1 init= -80.00     fin= -80.00     change= 0.1666E-08
eigenvalue    2 init= -49.54     fin= -49.54     change= 0.1100E-08
eigenvalue    3 init= -49.09     fin= -49.09     change= 0.3539E-10
eigenvalue    4 init= -49.09     fin= -49.09     change= 0.3316E-10
eigenvalue    5 init= -19.75     fin= -19.75     change= 0.1268E-05
eigenvalue    6 init= -6.613     fin= -6.613     change= 0.5558E-05
eigenvalue    7 init= -5.837     fin= -5.837     change= 0.6759E-06
eigenvalue    8 init= -5.771     fin= -5.771     change= 0.4298E-06
 Checking convergence criteria
 Diagonalising expanded subspace
 Copying updated data back
eigenvalue    9 init= -2.401     fin= -2.401     change= 0.6938E-05
eigenvalue   10 init= -2.073     fin= -2.073     change= 0.2770E-05
eigenvalue   11 init= -1.891     fin= -1.891     change= 0.2585E-05
eigenvalue   12 init= -1.135     fin= -1.135     change= 0.3581E-05
eigenvalue   13 init= -.9420     fin= -.9420     change= 0.1218E-05
eigenvalue   14 init= -.3872     fin= -.3872     change= 0.1305E-04
eigenvalue   15 init=  1.228     fin=  1.228     change= 0.5292E-06
eigenvalue   16 init=  2.539     fin=  2.539     change= 0.4310E-05
 Checking convergence criteria
 Diagonalising expanded subspace
 Copying updated data back
eigenvalue    9 init= -2.401     fin= -2.401     change= 0.7681E-05
eigenvalue   10 init= -2.073     fin= -2.073     change= 0.2977E-05
eigenvalue   11 init= -1.891     fin= -1.891     change= 0.2721E-05
eigenvalue   12 init= -1.135     fin= -1.135     change= 0.4060E-05
eigenvalue   13 init= -.9420     fin= -.9420     change= 0.1314E-05
eigenvalue   14 init= -.3872     fin= -.3873     change= 0.1508E-04
eigenvalue   15 init=  1.228     fin=  1.228     change= 0.6860E-06
eigenvalue   16 init=  2.539     fin=  2.539     change= 0.6287E-05
 Checking convergence criteria
 Diagonalising expanded subspace
 Copying updated data back
eigenvalue    9 init= -2.401     fin= -2.401     change= 0.7704E-05
eigenvalue   10 init= -2.073     fin= -2.073     change= 0.2978E-05
eigenvalue   11 init= -1.891     fin= -1.891     change= 0.2721E-05
eigenvalue   12 init= -1.135     fin= -1.135     change= 0.4110E-05
eigenvalue   13 init= -.9420     fin= -.9420     change= 0.1318E-05
eigenvalue   14 init= -.3872     fin= -.3873     change= 0.1523E-04
eigenvalue   15 init=  1.228     fin=  1.228     change= 0.7213E-06
eigenvalue   16 init=  2.539     fin=  2.539     change= 0.6977E-05
 Checking convergence criteria
 Diagonalising expanded subspace
 Copying updated data back
eigenvalue   17 init=  4.242     fin=  4.242     change= 0.3031E-06
 Checking convergence criteria
(Entering electronic_find_fermi_fix)
Smearing occupancies with Gaussians
Spin: 1, Min eigenvalue: -8.4755E+001 eV, Max eigenvalue:  3.4410E+000 eV
Fermi energy for up electrons = -3.0890E+000 eV [lower bound; range =  1.96E-014 eV]
Spin: 2, Min eigenvalue: -8.0796E+001 eV, Max eigenvalue:  5.0416E+000 eV
Fermi energy for down electrons = -3.1027E+000 eV [lower bound; range =  1.91E-014 eV]
(Leaving electronic_find_fermi_fix)
NB material has an apparent band gap of  1.3567E+000eV for spin up electrons.
NB material has an apparent band gap of  3.3705E+000eV for spin down electrons.
Calculating KE and non-local eigenvalues to find total energy
 
End of SCF cycle energies
Exchange-correlation energy      =      -499.07913191541501874 eV
+Hartree energy                  =      2055.86480228865912068 eV
+Local pseudopotential energy    =     -5072.04198973965321784 eV
----------------------------------
Potential energy (total)         =     -3514.54934736511222582 eV
                                  
+Hubbard U energy                =         0.47999999999999998 eV
+Kinetic energy                  =       776.81930462280536176 eV
+Non-local energy                =       151.39201392955533265 eV
+Electronic entropy term (-TS)   =        -0.00123568759226885 eV
+Ewald energy (const)            =      -774.85607651874397561 eV
+non-Coulombic energy (const)    =        13.80612138473854067 eV
----------------------------------
Total free energy (E-TS)         =     -3346.90921963434857389 eV
 
NB est. 0K energy (E-0.5TS)      =     -3346.90860179055243862 eV
 
(XC correction to eigenvalue sum =        44.01690523340165129 eV)
(Hubbard U correction to eigenvalu         0.00000003000000000 eV)
 
      1  -3.34690922E+003 -3.09423508E+000   1.17996817E-002      15.48  <-- SCF
 Calculate new overlap and Hubbard U matrix
 Density matrix in cubic harmonics:
     1.0000     0.0000     0.0000     0.0000     0.0000
     0.0000     0.0000     0.0000     0.0000     0.0000
     0.0000     0.0000     0.0000     0.0000     0.0000
     0.0000     0.0000     0.0000     0.0000     0.0000
     0.0000     0.0000     0.0000     0.0000     0.0000
     0.0000     0.0000     0.0000     0.0000     0.0000
     0.0000     0.0000     0.0000     1.0000     0.0000
     0.0000     0.0000     0.0000     0.0000     0.0000
     0.0000     0.0000     0.0000     0.0000     1.0000
     0.0000     0.0000     0.0000     0.0000     0.0000
 Hermiticity:        (-4.44089209850062616E-016,0.0000000000000000)
 Density matrix in cubic harmonics:
     1.0000     0.0000     0.0000     0.0000     0.0000
     0.0000     0.0000     0.0000     0.0000     0.0000
     0.0000     0.0000     0.0000     0.0000     0.0000
     0.0000     0.0000     0.0000     0.0000     0.0000
     0.0000     0.0000     0.0000     0.0000     0.0000
     0.0000     0.0000     0.0000     0.0000     0.0000
     0.0000     0.0000     0.0000     1.0000     0.0000
     0.0000     0.0000     0.0000     0.0000     0.0000
     0.0000     0.0000     0.0000     0.0000     1.0000
     0.0000     0.0000     0.0000     0.0000     0.0000
 Hermiticity:        (-4.44089209850062616E-016,0.0000000000000000)
 Density matrix in cubic harmonics:
     0.9433     0.0000     0.0000     0.0979    -0.0000
     0.0000     0.0000     0.0000     0.0000     0.0000
     0.0000     0.9997    -0.0000    -0.0000    -0.0000
     0.0000     0.0000     0.0000     0.0000     0.0000
     0.0000    -0.0000     0.9784    -0.0000    -0.0000
     0.0000     0.0000     0.0000     0.0000     0.0000
     0.0979    -0.0000    -0.0000     0.8303     0.0000
     0.0000     0.0000     0.0000     0.0000     0.0000
    -0.0000    -0.0000    -0.0000     0.0000     0.9784
     0.0000     0.0000     0.0000     0.0000     0.0000
 Hermiticity:              (0.21795932368254622,0.0000000000000000)
 Density matrix in cubic harmonics:
     0.0855     0.0000     0.0000    -0.1479     0.0000
     0.0000     0.0000     0.0000     0.0000     0.0000
     0.0000     0.0000     0.0000    -0.0000    -0.0000
     0.0000     0.0000     0.0000     0.0000     0.0000
     0.0000     0.0000     0.3114     0.0000     0.0000
     0.0000     0.0000     0.0000     0.0000     0.0000
    -0.1479    -0.0000     0.0000     0.2562    -0.0000
     0.0000     0.0000     0.0000     0.0000     0.0000
     0.0000    -0.0000     0.0000    -0.0000     0.3114
     0.0000     0.0000     0.0000     0.0000     0.0000
 Hermiticity:              (0.65384294760045381,0.0000000000000000)
  Hubbard energy diff=  -2.4450721832940250E-002 eV <-- Hubbard_U
  ----------- Hubbard U: New occupation matrix calculated: --------------------
  0.45554927816705976      eV <= Edirect

     Hubbard U occupation numbers
     ----------------------------
Species   Ion   l  spin               occupancies
==================================================================
  Mn       1    2   up:   0.77  0.98  0.98  1.00  1.00
                    dn:   0.00  0.00  0.31  0.31  0.34
==================================================================

 Only the high frequencies of the density were mixed in this cycle 
Symmetrising density
Calculating local potential
Calculating Hubbard U potential
 Density matrix in cubic harmonics:
     1.0000     0.0000     0.0000     0.0000     0.0000
     0.0000     0.0000     0.0000     0.0000     0.0000
     0.0000     0.0000     0.0000     0.0000     0.0000
     0.0000     0.0000     0.0000     0.0000     0.0000
     0.0000     0.0000     0.0000     0.0000     0.0000
     0.0000     0.0000     0.0000     0.0000     0.0000
     0.0000     0.0000     0.0000     1.0000     0.0000
     0.0000     0.0000     0.0000     0.0000     0.0000
     0.0000     0.0000     0.0000     0.0000     1.0000
     0.0000     0.0000     0.0000     0.0000     0.0000
 Hermiticity:        (-4.44089209850062616E-016,0.0000000000000000)
 Density matrix in cubic harmonics:
     1.0000     0.0000     0.0000     0.0000     0.0000
     0.0000     0.0000     0.0000     0.0000     0.0000
     0.0000     0.0000     0.0000     0.0000     0.0000
     0.0000     0.0000     0.0000     0.0000     0.0000
     0.0000     0.0000     0.0000     0.0000     0.0000
     0.0000     0.0000     0.0000     0.0000     0.0000
     0.0000     0.0000     0.0000     1.0000     0.0000
     0.0000     0.0000     0.0000     0.0000     0.0000
     0.0000     0.0000     0.0000     0.0000     1.0000
     0.0000     0.0000     0.0000     0.0000     0.0000
 Hermiticity:        (-4.44089209850062616E-016,0.0000000000000000)
Calculating non-local weights
Starting SCF cycle     2 of up to    30
 no. bands in each block=           8
Kinetic eigenvalue #   1 =     0.38349112E+02
Kinetic eigenvalue #   2 =     0.39990488E+02
Kinetic eigenvalue #   3 =     0.39990492E+02
Kinetic eigenvalue #   4 =     0.39595214E+02
Kinetic eigenvalue #   5 =     0.25104395E+02
Kinetic eigenvalue #   6 =     0.42248896E+02
Kinetic eigenvalue #   7 =     0.37422149E+02
Kinetic eigenvalue #   8 =     0.37443671E+02
Kinetic eigenvalue #   9 =     0.37899754E+02
Kinetic eigenvalue #  10 =     0.37454060E+02
Kinetic eigenvalue #  11 =     0.23177488E+02
Kinetic eigenvalue #  12 =     0.38267988E+02
Kinetic eigenvalue #  13 =     0.38388387E+02
Kinetic eigenvalue #  14 =     0.24830425E+02
Kinetic eigenvalue #  15 =     0.13687501E+02
Kinetic eigenvalue #  16 =     0.14310938E+02
Kinetic eigenvalue #  17 =     0.77388469E+01
 Diagonalising expanded subspace
 Copying updated data back
eigenvalue    1 init= -83.96     fin= -83.96     change= 0.1360E-08
eigenvalue    2 init= -53.14     fin= -53.14     change= 0.1388E-10
eigenvalue    3 init= -53.14     fin= -53.14     change= 0.1300E-10
eigenvalue    4 init= -52.98     fin= -52.98     change= 0.2132E-10
eigenvalue    5 init= -20.21     fin= -20.21     change= 0.1269E-07
eigenvalue    6 init= -7.608     fin= -7.608     change= 0.4393E-07
eigenvalue    7 init= -7.179     fin= -7.179     change= 0.7481E-07
eigenvalue    8 init= -7.179     fin= -7.179     change= 0.6929E-07
 Checking convergence criteria
 Diagonalising expanded subspace
 Copying updated data back
eigenvalue    9 init= -5.770     fin= -5.770     change= 0.1151E-08
eigenvalue   10 init= -5.601     fin= -5.601     change= 0.7603E-08
eigenvalue   11 init= -4.218     fin= -4.218     change= 0.5113E-07
eigenvalue   12 init= -3.621     fin= -3.621     change= 0.7608E-07
eigenvalue   13 init= -3.593     fin= -3.593     change= 0.1854E-07
eigenvalue   14 init= -1.768     fin= -1.768     change= 0.7167E-07
eigenvalue   15 init= 0.3025     fin= 0.3025     change= 0.6224E-07
eigenvalue   16 init= 0.4328     fin= 0.4328     change= 0.9359E-08
 Checking convergence criteria
 Diagonalising expanded subspace
 Copying updated data back
eigenvalue   17 init=  2.641     fin=  2.641     change= 0.2340E-06
 Checking convergence criteria
 no. bands in each block=           8
Kinetic eigenvalue #   1 =     0.38349089E+02
Kinetic eigenvalue #   2 =     0.39990480E+02
Kinetic eigenvalue #   3 =     0.39990669E+02
Kinetic eigenvalue #   4 =     0.39595206E+02
Kinetic eigenvalue #   5 =     0.25090745E+02
Kinetic eigenvalue #   6 =     0.42186004E+02
Kinetic eigenvalue #   7 =     0.37361750E+02
Kinetic eigenvalue #   8 =     0.37838199E+02
Kinetic eigenvalue #   9 =     0.37450043E+02
Kinetic eigenvalue #  10 =     0.37725391E+02
Kinetic eigenvalue #  11 =     0.20106189E+02
Kinetic eigenvalue #  12 =     0.37468474E+02
Kinetic eigenvalue #  13 =     0.41114978E+02
Kinetic eigenvalue #  14 =     0.25670284E+02
Kinetic eigenvalue #  15 =     0.13600806E+02
Kinetic eigenvalue #  16 =     0.80685677E+01
Kinetic eigenvalue #  17 =     0.17133072E+02
 Diagonalising expanded subspace
 Copying updated data back
eigenvalue    1 init= -83.96     fin= -83.96     change= 0.1433E-08
eigenvalue    2 init= -53.14     fin= -53.14     change= 0.1323E-10
eigenvalue    3 init= -53.14     fin= -53.14     change= 0.1349E-10
eigenvalue    4 init= -52.98     fin= -52.98     change= 0.1926E-10
eigenvalue    5 init= -20.21     fin= -20.21     change= 0.1086E-07
eigenvalue    6 init= -7.612     fin= -7.612     change= 0.3299E-07
eigenvalue    7 init= -7.183     fin= -7.183     change= 0.6878E-07
eigenvalue    8 init= -7.148     fin= -7.148     change= 0.3179E-07
 Checking convergence criteria
 Diagonalising expanded subspace
 Copying updated data back
eigenvalue    9 init= -5.803     fin= -5.803     change= 0.2523E-08
eigenvalue   10 init= -5.583     fin= -5.583     change= 0.5666E-08
eigenvalue   11 init= -4.473     fin= -4.473     change= 0.3258E-07
eigenvalue   12 init= -3.641     fin= -3.641     change= 0.1237E-07
eigenvalue   13 init= -3.491     fin= -3.491     change= 0.3043E-07
eigenvalue   14 init= -1.957     fin= -1.957     change= 0.6275E-07
eigenvalue   15 init= -.6301E-01 fin= -.6301E-01 change= 0.2724E-07
eigenvalue   16 init=  2.025     fin=  2.025     change= 0.3171E-06
 Checking convergence criteria
 Diagonalising expanded subspace
 Copying updated data back
eigenvalue   17 init=  2.483     fin=  2.483     change= 0.1275E-07
 Checking convergence criteria
 no. bands in each block=           8
Kinetic eigenvalue #   1 =     0.38349097E+02
Kinetic eigenvalue #   2 =     0.39990480E+02
Kinetic eigenvalue #   3 =     0.39990669E+02
Kinetic eigenvalue #   4 =     0.39595206E+02
Kinetic eigenvalue #   5 =     0.25090741E+02
Kinetic eigenvalue #   6 =     0.42185978E+02
Kinetic eigenvalue #   7 =     0.37361756E+02
Kinetic eigenvalue #   8 =     0.37838198E+02
Kinetic eigenvalue #   9 =     0.37450041E+02
Kinetic eigenvalue #  10 =     0.37725391E+02
Kinetic eigenvalue #  11 =     0.20106185E+02
Kinetic eigenvalue #  12 =     0.37468481E+02
Kinetic eigenvalue #  13 =     0.41114971E+02
Kinetic eigenvalue #  14 =     0.25670316E+02
Kinetic eigenvalue #  15 =     0.13600811E+02
Kinetic eigenvalue #  16 =     0.80682202E+01
Kinetic eigenvalue #  17 =     0.17132661E+02
 Diagonalising expanded subspace
 Copying updated data back
eigenvalue    1 init= -83.96     fin= -83.96     change= 0.1361E-08
eigenvalue    2 init= -53.14     fin= -53.14     change= 0.1315E-10
eigenvalue    3 init= -53.14     fin= -53.14     change= 0.1353E-10
eigenvalue    4 init= -52.98     fin= -52.98     change= 0.1889E-10
eigenvalue    5 init= -20.21     fin= -20.21     change= 0.1091E-07
eigenvalue    6 init= -7.612     fin= -7.612     change= 0.3103E-07
eigenvalue    7 init= -7.183     fin= -7.183     change= 0.6943E-07
eigenvalue    8 init= -7.148     fin= -7.148     change= 0.3153E-07
 Checking convergence criteria
 Diagonalising expanded subspace
 Copying updated data back
eigenvalue    9 init= -5.803     fin= -5.803     change= 0.2502E-08
eigenvalue   10 init= -5.583     fin= -5.583     change= 0.5660E-08
eigenvalue   11 init= -4.473     fin= -4.473     change= 0.3284E-07
eigenvalue   12 init= -3.641     fin= -3.641     change= 0.1223E-07
eigenvalue   13 init= -3.491     fin= -3.491     change= 0.3016E-07
eigenvalue   14 init= -1.957     fin= -1.957     change= 0.6068E-07
eigenvalue   15 init= -.6301E-01 fin= -.6301E-01 change= 0.2286E-07
eigenvalue   16 init=  2.025     fin=  2.025     change= 0.2614E-06
 Checking convergence criteria
 Diagonalising expanded subspace
 Copying updated data back
eigenvalue   17 init=  2.483     fin=  2.483     change= 0.4905E-07
 Checking convergence criteria
 no. bands in each block=           8
Kinetic eigenvalue #   1 =     0.38349116E+02
Kinetic eigenvalue #   2 =     0.39990488E+02
Kinetic eigenvalue #   3 =     0.39990492E+02
Kinetic eigenvalue #   4 =     0.39595214E+02
Kinetic eigenvalue #   5 =     0.25104387E+02
Kinetic eigenvalue #   6 =     0.42248979E+02
Kinetic eigenvalue #   7 =     0.37422122E+02
Kinetic eigenvalue #   8 =     0.37443668E+02
Kinetic eigenvalue #   9 =     0.37899755E+02
Kinetic eigenvalue #  10 =     0.37454055E+02
Kinetic eigenvalue #  11 =     0.23177475E+02
Kinetic eigenvalue #  12 =     0.38267988E+02
Kinetic eigenvalue #  13 =     0.38388422E+02
Kinetic eigenvalue #  14 =     0.24830404E+02
Kinetic eigenvalue #  15 =     0.13687415E+02
Kinetic eigenvalue #  16 =     0.14310938E+02
Kinetic eigenvalue #  17 =     0.77370284E+01
 Diagonalising expanded subspace
 Copying updated data back
eigenvalue    1 init= -83.96     fin= -83.96     change= 0.1334E-08
eigenvalue    2 init= -53.14     fin= -53.14     change= 0.1382E-10
eigenvalue    3 init= -53.14     fin= -53.14     change= 0.1297E-10
eigenvalue    4 init= -52.98     fin= -52.98     change= 0.2069E-10
eigenvalue    5 init= -20.21     fin= -20.21     change= 0.1181E-07
eigenvalue    6 init= -7.608     fin= -7.608     change= 0.3659E-07
eigenvalue    7 init= -7.179     fin= -7.179     change= 0.7463E-07
eigenvalue    8 init= -7.179     fin= -7.179     change= 0.6920E-07
 Checking convergence criteria
 Diagonalising expanded subspace
 Copying updated data back
eigenvalue    9 init= -5.770     fin= -5.770     change= 0.1151E-08
eigenvalue   10 init= -5.601     fin= -5.601     change= 0.7440E-08
eigenvalue   11 init= -4.218     fin= -4.218     change= 0.3731E-07
eigenvalue   12 init= -3.621     fin= -3.621     change= 0.7609E-07
eigenvalue   13 init= -3.593     fin= -3.593     change= 0.1773E-07
eigenvalue   14 init= -1.768     fin= -1.768     change= 0.5206E-07
eigenvalue   15 init= 0.3025     fin= 0.3025     change= 0.6253E-07
eigenvalue   16 init= 0.4328     fin= 0.4328     change= 0.9340E-08
 Checking convergence criteria
 Diagonalising expanded subspace
 Copying updated data back
eigenvalue   17 init=  2.641     fin=  2.641     change= 0.1670E-06
 Checking convergence criteria
 no. bands in each block=           8
Kinetic eigenvalue #   1 =     0.38349103E+02
Kinetic eigenvalue #   2 =     0.39990480E+02
Kinetic eigenvalue #   3 =     0.39990669E+02
Kinetic eigenvalue #   4 =     0.39595206E+02
Kinetic eigenvalue #   5 =     0.25090743E+02
Kinetic eigenvalue #   6 =     0.42185978E+02
Kinetic eigenvalue #   7 =     0.37361750E+02
Kinetic eigenvalue #   8 =     0.37838193E+02
Kinetic eigenvalue #   9 =     0.37450037E+02
Kinetic eigenvalue #  10 =     0.37725391E+02
Kinetic eigenvalue #  11 =     0.20106318E+02
Kinetic eigenvalue #  12 =     0.37468560E+02
Kinetic eigenvalue #  13 =     0.41114953E+02
Kinetic eigenvalue #  14 =     0.25670755E+02
Kinetic eigenvalue #  15 =     0.13600767E+02
Kinetic eigenvalue #  16 =     0.80689081E+01
Kinetic eigenvalue #  17 =     0.17132623E+02
 Diagonalising expanded subspace
 Copying updated data back
eigenvalue    1 init= -83.96     fin= -83.96     change= 0.1337E-08
eigenvalue    2 init= -53.14     fin= -53.14     change= 0.1306E-10
eigenvalue    3 init= -53.14     fin= -53.14     change= 0.1360E-10
eigenvalue    4 init= -52.98     fin= -52.98     change= 0.1908E-10
eigenvalue    5 init= -20.21     fin= -20.21     change= 0.1096E-07
eigenvalue    6 init= -7.612     fin= -7.612     change= 0.3103E-07
eigenvalue    7 init= -7.183     fin= -7.183     change= 0.6992E-07
eigenvalue    8 init= -7.148     fin= -7.148     change= 0.3150E-07
 Checking convergence criteria
 Diagonalising expanded subspace
 Copying updated data back
eigenvalue    9 init= -5.803     fin= -5.803     change= 0.2542E-08
eigenvalue   10 init= -5.583     fin= -5.583     change= 0.5665E-08
eigenvalue   11 init= -4.473     fin= -4.473     change= 0.4848E-07
[...]
Spin 1, kpoint ( 0.250000 -0.333333  0.333333 ) weight = 0.111111
+--------+-------------------+----------------+
|  Band  |   Eigenvalue      |    Occupancy   |                   <- occ
+--------+-------------------+----------------+                   <- occ
|     8  |   -.719773E+01    |   1.00000      |                   <- occ
|     9  |   -.581998E+01    |   1.00000      |                   <- occ
|    10  |   -.565071E+01    |   1.00000      |                   <- occ
|    11  |   -.424097E+01    |   1.00000      |                   <- occ
|    12  |   -.364126E+01    |  0.999904      |                   <- occ
|    13  |   -.361402E+01    |  0.999797      |                   <- occ
|    14  |   -.178658E+01    |   0.00000      |                   <- occ
|    15  |   0.293394E+00    |   0.00000      |                   <- occ
+--------+-------------------+----------------+                   <- occ
Spin 2, kpoint (-0.250000 -0.333333 -0.333333 ) weight = 0.111111
+--------+-------------------+----------------+
|  Band  |   Eigenvalue      |    Occupancy   |                   <- occ
+--------+-------------------+----------------+                   <- occ
|     8  |   -.583377E+01    |   1.00000      |                   <- occ
|     9  |   -.211554E+01    |  0.835443E-12  |                   <- occ
|    10  |   -.201139E+01    |  0.321965E-14  |                   <- occ
|    11  |   -.193846E+01    |   0.00000      |                   <- occ
|    12  |   -.112457E+01    |   0.00000      |                   <- occ
|    13  |   -.109712E+01    |   0.00000      |                   <- occ
|    14  |   -.214899E+00    |   0.00000      |                   <- occ
|    15  |   0.160673E+01    |   0.00000      |                   <- occ
+--------+-------------------+----------------+                   <- occ
Spin 2, kpoint (-0.250000  0.000000 -0.333333 ) weight = 0.111111
+--------+-------------------+----------------+
|  Band  |   Eigenvalue      |    Occupancy   |                   <- occ
+--------+-------------------+----------------+                   <- occ
|     8  |   -.577869E+01    |   1.00000      |                   <- occ
|     9  |   -.242422E+01    |  0.539020E-06  |                   <- occ
|    10  |   -.211078E+01    |  0.655476E-12  |                   <- occ
|    11  |   -.193273E+01    |   0.00000      |                   <- occ
|    12  |   -.116688E+01    |   0.00000      |                   <- occ
|    13  |   -.976200E+00    |   0.00000      |                   <- occ
|    14  |   -.409034E+00    |   0.00000      |                   <- occ
|    15  |   0.121599E+01    |   0.00000      |                   <- occ
+--------+-------------------+----------------+                   <- occ
Spin 2, kpoint (-0.250000  0.000000  0.333333 ) weight = 0.111111
+--------+-------------------+----------------+
|  Band  |   Eigenvalue      |    Occupancy   |                   <- occ
+--------+-------------------+----------------+                   <- occ
|     8  |   -.577869E+01    |   1.00000      |                   <- occ
|     9  |   -.242422E+01    |  0.539019E-06  |                   <- occ
|    10  |   -.211078E+01    |  0.655476E-12  |                   <- occ
|    11  |   -.193273E+01    |   0.00000      |                   <- occ
|    12  |   -.116688E+01    |   0.00000      |                   <- occ
|    13  |   -.976200E+00    |   0.00000      |                   <- occ
|    14  |   -.409034E+00    |   0.00000      |                   <- occ
|    15  |   0.121599E+01    |   0.00000      |                   <- occ
+--------+-------------------+----------------+                   <- occ
Spin 2, kpoint (-0.250000  0.333333  0.333333 ) weight = 0.111111
+--------+-------------------+----------------+
|  Band  |   Eigenvalue      |    Occupancy   |                   <- occ
+--------+-------------------+----------------+                   <- occ
|     8  |   -.583377E+01    |   1.00000      |                   <- occ
|     9  |   -.211554E+01    |  0.835443E-12  |                   <- occ
|    10  |   -.201139E+01    |  0.321965E-14  |                   <- occ
|    11  |   -.193846E+01    |   0.00000      |                   <- occ
|    12  |   -.112457E+01    |   0.00000      |                   <- occ
|    13  |   -.109712E+01    |   0.00000      |                   <- occ
|    14  |   -.214899E+00    |   0.00000      |                   <- occ
|    15  |   0.160673E+01    |   0.00000      |                   <- occ
+--------+-------------------+----------------+                   <- occ
Spin 2, kpoint ( 0.250000  0.333333  0.000000 ) weight = 0.111111
+--------+-------------------+----------------+
|  Band  |   Eigenvalue      |    Occupancy   |                   <- occ
+--------+-------------------+----------------+                   <- occ
|     8  |   -.577869E+01    |   1.00000      |                   <- occ
|     9  |   -.242422E+01    |  0.539018E-06  |                   <- occ
|    10  |   -.211078E+01    |  0.655476E-12  |                   <- occ
|    11  |   -.193273E+01    |   0.00000      |                   <- occ
|    12  |   -.116688E+01    |   0.00000      |                   <- occ
|    13  |   -.976200E+00    |   0.00000      |                   <- occ
|    14  |   -.409034E+00    |   0.00000      |                   <- occ
|    15  |   0.121599E+01    |   0.00000      |                   <- occ
+--------+-------------------+----------------+                   <- occ
Spin 2, kpoint (-0.250000 -0.333333  0.333333 ) weight = 0.111111
+--------+-------------------+----------------+
|  Band  |   Eigenvalue      |    Occupancy   |                   <- occ
+--------+-------------------+----------------+                   <- occ
|     8  |   -.583377E+01    |   1.00000      |                   <- occ
|     9  |   -.211554E+01    |  0.835443E-12  |                   <- occ
|    10  |   -.201139E+01    |  0.321965E-14  |                   <- occ
|    11  |   -.193846E+01    |   0.00000      |                   <- occ
|    12  |   -.112457E+01    |   0.00000      |                   <- occ
|    13  |   -.109712E+01    |   0.00000      |                   <- occ
|    14  |   -.214899E+00    |   0.00000      |                   <- occ
|    15  |   0.160673E+01    |   0.00000      |                   <- occ
+--------+-------------------+----------------+                   <- occ
Spin 2, kpoint (-0.250000  0.000000  0.000000 ) weight = 0.111111
+--------+-------------------+----------------+
|  Band  |   Eigenvalue      |    Occupancy   |                   <- occ
+--------+-------------------+----------------+                   <- occ
|     8  |   -.578289E+01    |   1.00000      |                   <- occ
|     9  |   -.280795E+01    |  0.152535E-01  |                   <- occ
|    10  |   -.222534E+01    |  0.165930E-09  |                   <- occ
|    11  |   -.190294E+01    |   0.00000      |                   <- occ
|    12  |   -.989686E+00    |   0.00000      |                   <- occ
|    13  |   -.989686E+00    |   0.00000      |                   <- occ
|    14  |   -.611099E+00    |   0.00000      |                   <- occ
|    15  |   0.190873E+01    |   0.00000      |                   <- occ
+--------+-------------------+----------------+                   <- occ
Spin 2, kpoint (-0.250000  0.333333  0.000000 ) weight = 0.111111
+--------+-------------------+----------------+
|  Band  |   Eigenvalue      |    Occupancy   |                   <- occ
+--------+-------------------+----------------+                   <- occ
|     8  |   -.577869E+01    |   1.00000      |                   <- occ
|     9  |   -.242422E+01    |  0.539018E-06  |                   <- occ
|    10  |   -.211078E+01    |  0.655476E-12  |                   <- occ
|    11  |   -.193273E+01    |   0.00000      |                   <- occ
|    12  |   -.116688E+01    |   0.00000      |                   <- occ
|    13  |   -.976200E+00    |   0.00000      |                   <- occ
|    14  |   -.409034E+00    |   0.00000      |                   <- occ
|    15  |   0.121599E+01    |   0.00000      |                   <- occ
+--------+-------------------+----------------+                   <- occ
Spin 2, kpoint ( 0.250000 -0.333333  0.333333 ) weight = 0.111111
+--------+-------------------+----------------+
|  Band  |   Eigenvalue      |    Occupancy   |                   <- occ
+--------+-------------------+----------------+                   <- occ
|     8  |   -.583377E+01    |   1.00000      |                   <- occ
|     9  |   -.211554E+01    |  0.835443E-12  |                   <- occ
|    10  |   -.201139E+01    |  0.321965E-14  |                   <- occ
|    11  |   -.193846E+01    |   0.00000      |                   <- occ
|    12  |   -.112457E+01    |   0.00000      |                   <- occ
|    13  |   -.109712E+01    |   0.00000      |                   <- occ
|    14  |   -.214899E+00    |   0.00000      |                   <- occ
|    15  |   0.160673E+01    |   0.00000      |                   <- occ
+--------+-------------------+----------------+                   <- occ
  achieved Hubbard U energy convergence:   1.7800261482500690E-007
Have a nice day.

Writing analysis data to MnO.castep_bin

Writing model to MnO.check
                            Ewald force:
Species #   1 Atom #   1 Fx: 483.919     Fy:0.185030E-13 Fz:0.185420E-13 eV/A
Species #   2 Atom #   1 Fx:-483.919     Fy:-.184017E-13 Fz:-.185483E-13 eV/A

 Pseudo atomic calculation performed for O 2s2 2p4

 Converged in 24 iterations to a total energy of -431.0932 eV

 Pseudo atomic calculation performed for Mn 3s2 3p6 3d5 4s2

 Converged in 38 iterations to a total energy of -2902.3718 eV
  Accepting available Hubbard U occ matrix: 

     Hubbard U occupation numbers
     ----------------------------
Species   Ion   l  spin               occupancies
==================================================================
  Mn       1    2   up:   0.78  0.98  0.98  1.00  1.00
                    dn:  -0.00  0.00  0.31  0.31  0.34
==================================================================

 Density matrix in cubic harmonics:
     0.9442     0.0000    -0.0000     0.0963    -0.0000
     0.0000     0.0000     0.0000     0.0000     0.0000
     0.0000     0.9997     0.0000    -0.0000     0.0000
     0.0000     0.0000     0.0000     0.0000     0.0000
    -0.0000     0.0000     0.9787     0.0000     0.0000
     0.0000     0.0000     0.0000     0.0000     0.0000
     0.0963    -0.0000     0.0000     0.8329     0.0000
     0.0000     0.0000     0.0000     0.0000     0.0000
    -0.0000     0.0000     0.0000     0.0000     0.9787
     0.0000     0.0000     0.0000     0.0000     0.0000
 Hermiticity:              (0.21531945606497671,0.0000000000000000)
 Density matrix in cubic harmonics:
     0.0861    -0.0000    -0.0000    -0.1490     0.0000
     0.0000     0.0000     0.0000     0.0000     0.0000
    -0.0000     0.0000    -0.0000     0.0000    -0.0000
     0.0000     0.0000     0.0000     0.0000     0.0000
    -0.0000    -0.0000     0.3150     0.0000    -0.0000
     0.0000     0.0000     0.0000     0.0000     0.0000
    -0.1490     0.0000     0.0000     0.2582     0.0000
     0.0000     0.0000     0.0000     0.0000     0.0000
     0.0000    -0.0000    -0.0000     0.0000     0.3150
     0.0000     0.0000     0.0000     0.0000     0.0000
 Hermiticity:              (0.65735446876010450,0.0000000000000000)
Hubbard U energy: Ha   =    0.016782521246
Hubbard U forces Ha/A    1     7.747877115931    4.724315314592    4.724315314592    0.000000000001   -0.000000000000   -0.000000000000
Hubbard U forces Ha/A    2     4.724315314592    4.724315314592    4.724315314592   -0.000000000044    0.000000000000    0.000000000000
  achieved Hubbard U energy convergence:   7.3498644949913272E-007

 *********************** Ewald forces ***********************
 *                                                          *
 *               Cartesian components (eV/A)                *
 * -------------------------------------------------------- *
 *                         x            y            z      *
 *                                                          *
 * O               1    483.91934      0.00000      0.00000 *
 * Mn              1   -483.91934     -0.00000     -0.00000 *
 *                                                          *
 ************************************************************

 ****************** Local potential forces ******************
 *                                                          *
 *               Cartesian components (eV/A)                *
 * -------------------------------------------------------- *
 *                         x            y            z      *
 *                                                          *
 * O               1   -453.56743      0.00002      0.00002 *
 * Mn              1    496.29225      0.00002      0.00002 *
 *                                                          *
 ************************************************************

 **************** Non-local potential forces ****************
 *                                                          *
 *               Cartesian components (eV/A)                *
 * -------------------------------------------------------- *
 *                         x            y            z      *
 *                                                          *
 * O               1    -30.15437     -0.00002     -0.00001 *
 * Mn              1    -13.31586      0.00000     -0.00000 *
 *                                                          *
 ************************************************************

 ************** External Efield and/or dipole ***************
 *                                                          *
 *               Cartesian components (eV/A)                *
 * -------------------------------------------------------- *
 *                         x            y            z      *
 *                                                          *
 * O               1      0.00000      0.00000      0.00000 *
 * Mn              1      0.00000      0.00000      0.00000 *
 *                                                          *
 ************************************************************

 ***************** DM correction to forces ******************
 *                                                          *
 *               Cartesian components (eV/A)                *
 * -------------------------------------------------------- *
 *                         x            y            z      *
 *                                                          *
 * O               1      0.00000      0.00000      0.00000 *
 * Mn              1      0.00000      0.00000      0.00000 *
 *                                                          *
 ************************************************************

 ***************** Hubbard potential forces *****************
 *                                                          *
 *               Cartesian components (eV/A)                *
 * -------------------------------------------------------- *
 *                         x            y            z      *
 *                                                          *
 * O               1      0.00000     -0.00000     -0.00000 *
 * Mn              1     -0.00000      0.00000      0.00000 *
 *                                                          *
 ************************************************************

 ************************** Forces **************************
 *                                                          *
 *               Cartesian components (eV/A)                *
 * -------------------------------------------------------- *
 *                         x            y            z      *
 *                                                          *
 * O               1      0.57025     -0.00001     -0.00001 *
 * Mn              1     -0.57025      0.00001      0.00001 *
 *                                                          *
 ************************************************************

 Pseudo atomic calculation performed for O 2s2 2p4

 Converged in 24 iterations to a total energy of -431.0932 eV

 Pseudo atomic calculation performed for Mn 3s2 3p6 3d5 4s2

 Converged in 38 iterations to a total energy of -2902.3718 eV
Charge spilling parameter for spin component 1 = 0.19%
Charge spilling parameter for spin component 2 = 0.16%

                   Orbital Populations                  
  ---------------------------------------------------------------
     Ion    Atom   Orbital              Up        Down      Spin
  ---------------------------------------------------------------
      O     1      S                    0.963     0.960     0.004
      O     1      Px                   0.666     0.739    -0.073
      O     1      Py                   0.899     0.730     0.169
      O     1      Pz                   0.900     0.730     0.169
     Mn     1      S                    0.999     1.000    -0.001
     Mn     1      Px                   0.998     0.998     0.000
     Mn     1      Py                   1.000     1.000     0.000
     Mn     1      Pz                   1.000     1.000     0.000
     Mn     1      Dzz                  0.927     0.065     0.861
     Mn     1      Dzy                  1.000     0.000     1.000
     Mn     1      Dzx                  0.971     0.247     0.723
     Mn     1      Dxx-yy               0.781     0.196     0.585
     Mn     1      Dxy                  0.971     0.247     0.724
     Mn     1      S                    0.618     0.021     0.597
     Mn     1      Px                   0.040     0.022     0.017
     Mn     1      Py                   0.133     0.022     0.111
     Mn     1      Pz                   0.133     0.022     0.111
  ---------------------------------------------------------------
                           Total:      12.998     8.002     4.997
  ---------------------------------------------------------------
The total projected populations are: spin up   12.998   0.000, spin down    8.002   0.000, total   21.000   0.000

     Atomic Populations (Mulliken)
     -----------------------------
Species          Ion Spin      s      p      d      f     Total  Charge(e)   Spin(hbar/2)
=========================================================================================
  O               1   up:     0.96   2.46   0.00   0.00   3.43    -0.59        0.27
                  1   dn:     0.96   2.20   0.00   0.00   3.16
  Mn              1   up:     1.62   3.30   4.65   0.00   9.57     0.59        4.73
                  1   dn:     1.02   3.06   0.76   0.00   4.84
=========================================================================================

                 Bond                   Population        Spin       Length (A)
================================================================================
               O 1 -- Mn 1                   0.64        -0.04          1.60000
================================================================================


Writing analysis data to MnO.castep_bin

Writing model to MnO.check
Initialisation time =     13.15 s
Calculation time    =     14.98 s
Finalisation time   =      0.13 s
Total time          =     28.26 s
Peak Memory Use     = 519152 kB
  
Overall parallel efficiency rating: Good (76%)                                  
  
Data was distributed by:-
k-point (2-way); efficiency rating: Good (77%)                                  
  
Parallel notes:
1) Calculation only took 28.1 s, so efficiency estimates may be inaccurate.     
2) k-points were not fully distributed, there were 5 k-points per process.      
  
Efficiencies are estimated from the ratio of communication time to total time,
and do not include all the effects of serial operations or load imbalance.
