 +-------------------------------------------------+
 |                                                 |
 |      CCC   AA    SSS  TTTTT  EEEEE  PPPP        |
 |     C     A  A  S       T    E      P   P       |
 |     C     AAAA   SS     T    EEE    PPPP        |
 |     C     A  A     S    T    E      P           |
 |      CCC  A  A  SSS     T    EEEEE  P           |
 |                                                 |
 +-------------------------------------------------+
 |                                                 |
 | Welcome to Academic Release CASTEP version 19.11|          
 | Ab Initio Total Energy Program                  |
 |                                                 |
 | Authors:                                        |
 | M. Segall, M. Probert, C. Pickard, P. Hasnip,   |
 | S. Clark, K. Refson, J. R. Yates, M. Payne      |
 |                                                 |
 | Contributors:                                   |
 | P. Lindan, P. Haynes, J. White, V. Milman,      |
 | N. Govind, M. Gibson, P. Tulip, V. Cocula,      |
 | B. Montanari, D. Quigley, M. Glover,            |
 | L. Bernasconi, A. Perlov, M. Plummer,           |
 | E. McNellis, J. Meyer, J. Gale, D. Jochym       |
 | J. Aarons, B. Walker, R. Gillen, D. Jones       |
 | T. Green, I. J. Bush, C. J. Armstrong,          |
 | E. J. Higgins, E. L. Brown, M. S. McFly,        |
 | J. Wilkins, B-C. Shih, P. J. P. Byrne           |
 |                                                 |
 | Copyright (c) 2000 - 2018                       |
 |                                                 |
 |     Distributed under the terms of an           |
 |     Agreement between the United Kingdom        |
 |     Car-Parrinello (UKCP) Consortium,           |
 |     Daresbury Laboratory and Accelrys, Inc.     |
 |                                                 |
 | Please cite                                     |
 |                                                 |
 |     "First principles methods using CASTEP"     |
 |                                                 |
 |         Zeitschrift fuer Kristallographie       |
 |           220(5-6) pp. 567-570 (2005)           |
 |                                                 |
 | S. J. Clark, M. D. Segall, C. J. Pickard,       |
 | P. J. Hasnip, M. J. Probert, K. Refson,         |
 | M. C. Payne                                     |
 |                                                 |
 |       in all publications arising from          |
 |              your use of CASTEP                 |
 |                                                 |
 +-------------------------------------------------+
 |                                                 |
 |              http://www.castep.org              |
 |                                                 |
 +-------------------------------------------------+



 Compiled for linux_x86_64_gfortran7.0 on Mon, 30 Mar 2020 12:17:21 +0100
 from code version e1fe0d666396+ Castep191_branch Thu, 24 Oct 2019 13:54:03 +0100
 Compiler: GNU Fortran 7.5.0; Optimisation: fast
 MATHLIBS: Intel MKL(2019.0.5) (LAPACK version 3.7.0)
 FFT Lib : mkl
 Fundamental constants values: CODATA 2014

 Run started: Wed, 04 Nov 2020 19:29:33 +0000

 ******************************* User Parameters *******************************
iprint              : 3          # verbosity control (I)
reuse               : base.check # reuse filename (S)
writebib            : F          # output BibTeX references (L)
writeotfg           : F          # output OTFG files (L)
writecstesp         : F          # output cst_esp file (L)
spin                : 5.0000000  # net spin (R)
spinpolarised       : T          # spin polarised (L)
%block develcode    :            # developers code (B)
iprintu=8,
%endblock develcode :            # developers code (B)

 *******************************************************************************
  

 Atomic calculation performed for O: 1s2 2s2 2p4

 Converged in 60 iterations to an ae energy of -2027.926 eV


 Atomic calculation performed for Mn: 1s2 2s2 2p6 3s2 3p6 3d5 4s2

 Converged in 96 iterations to an ae energy of -31460.102 eV


 Pseudo atomic calculation performed for O 2s2 2p4

 Converged in 24 iterations to a total energy of -431.0932 eV

 Pseudo atomic calculation performed for Mn 3s2 3p6 3d5 4s2

 Converged in 38 iterations to a total energy of -2902.3718 eV
Initialising basis set.

Standard grid dimensions:  48  36  36
Fine grid dimensions:      48  36  36

Plane wave load balancing: max   5869 min   5847 average   5864
True cut-off energy of basis :  22.996
 Reusing data from model file base.check
 Number of symmetry ops  =           1

 ******************************* User Parameters *******************************
iprint              : 3          # verbosity control (I)
reuse               : base.check # reuse filename (S)
writebib            : F          # output BibTeX references (L)
writeotfg           : F          # output OTFG files (L)
writecstesp         : F          # output cst_esp file (L)
spin                : 5.0000000  # net spin (R)
spinpolarised       : T          # spin polarised (L)
%block develcode    :            # developers code (B)
iprintu=8,
%endblock develcode :            # developers code (B)

 *******************************************************************************
  

 Atomic calculation performed for O: 1s2 2s2 2p4

 Converged in 60 iterations to an ae energy of -2027.926 eV


 Atomic calculation performed for Mn: 1s2 2s2 2p6 3s2 3p6 3d5 4s2

 Converged in 96 iterations to an ae energy of -31460.102 eV


 Pseudo atomic calculation performed for O 2s2 2p4

 Converged in 24 iterations to a total energy of -431.0932 eV

 Pseudo atomic calculation performed for Mn 3s2 3p6 3d5 4s2

 Converged in 38 iterations to a total energy of -2902.3718 eV
Initialising basis set.

Standard grid dimensions:  48  36  36
Fine grid dimensions:      48  36  36

Plane wave load balancing: max   5869 min   5847 average   5864
True cut-off energy of basis :  22.996
K-point set unchanged, read in wavefunction.
Reusing density from model file.
 Calculation parallelised over 2 processes.
 Data is distributed by k-point(2-way)

 ************************************ Title ************************************
 

 ***************************** General Parameters ******************************
  
 output verbosity                               : extreme (3)
 reusing                                        : base.check
 write checkpoint data to                       : MnO.check
 type of calculation                            : single point energy
 stress calculation                             : off
 density difference calculation                 : off
 electron localisation func (ELF) calculation   : off
 Hirshfeld analysis                             : off
 unlimited duration calculation
 timing information                             : on
 memory usage estimate                          : on
 write extra output files                       : on
 write final potential to formatted file        : off
 write final density to formatted file          : off
 write BibTeX reference list                    : off
 write OTFG pseudopotential files               : off
 write electrostatic potential file             : off
 write bands file                               : on
 checkpoint writing                             : both castep_bin and check files
  
 output         length unit                     : A
 output           mass unit                     : amu
 output           time unit                     : ps
 output         charge unit                     : e
 output           spin unit                     : hbar/2
 output         energy unit                     : eV
 output          force unit                     : eV/A
 output       velocity unit                     : A/ps
 output       pressure unit                     : GPa
 output     inv_length unit                     : 1/A
 output      frequency unit                     : cm-1
 output force constant unit                     : eV/A**2
 output         volume unit                     : A**3
 output   IR intensity unit                     : (D/A)**2/amu
 output         dipole unit                     : D
 output         efield unit                     : eV/A/e
 output        entropy unit                     : J/mol/K
  
 wavefunctions paging                           : none
 random number generator seed                   : randomised (192940427)
 data distribution                              : optimal for this architecture
 optimization strategy                          : balance speed and memory

 *********************** Exchange-Correlation Parameters ***********************
  
 using functional                               : Local Density Approximation
 relativistic treatment                         : Koelling-Harmon
 DFT+D: Semi-empirical dispersion correction    : off

 ************************* Pseudopotential Parameters **************************
  
 pseudopotential representation                 : reciprocal space
 <beta|phi> representation                      : reciprocal space
 spin-orbit coupling                            : off

 **************************** Basis Set Parameters *****************************
  
 basis set accuracy                             : FINE
 plane wave basis set cut-off                   :   625.8619   eV
 size of standard grid                          :     1.7500
 size of   fine   gmax                          :    22.4293   1/A
 largest prime factor in FFT                    :          5
 finite basis set correction                    : none

 **************************** Electronic Parameters ****************************
  
 number of  electrons                           :  21.00    
 net charge of system                           :  0.000    
 net spin   of system                           :  5.000    
 number of  up  spins                           :  13.00    
 number of down spins                           :  8.000    
 treating system as spin-polarized
 number of bands                                :         17

 ********************* Electronic Minimization Parameters **********************
  
 Method: Treating system as metallic with density mixing treatment of electrons,
         and number of  SD  steps               :          1
         and number of  CG  steps               :          4
  
 total energy / atom convergence tol.           : 0.1000E-04   eV
 eigen-energy convergence tolerance             : 0.1000E-05   eV
 max force / atom convergence tol.              : ignored
 convergence tolerance window                   :          3   cycles
 max. number of SCF cycles                      :         30
 number of fixed-spin iterations                :         10
 smearing scheme                                : Gaussian
 smearing width                                 : 0.2000       eV
 Fermi energy convergence tolerance             : 0.2721E-13   eV
 periodic dipole correction                     : NONE

 ************************** Density Mixing Parameters **************************
  
 density-mixing scheme                          : Broyden
 max. length of mixing history                  :         20
 charge density mixing amplitude                : 0.8000    
   spin density mixing amplitude                :  2.000    
 charge density mixing g-vector                 :  1.500       1/A
   spin density mixing g-vector                 :  1.500       1/A

 *********************** Population Analysis Parameters ************************
  
 Population analysis with cutoff                :  3.000       A
 Population analysis output                     : summary and pdos components

 ******************************* Developer Code ********************************
  
 iprintu=8,

 *******************************************************************************
  

                           -------------------------------
                                      Unit Cell
                           -------------------------------
        Real Lattice(A)                      Reciprocal Lattice(1/A)
     6.6000000     0.0000000     0.0000000        0.951997774   0.000000000   0.000000000
     0.0000000     5.0000000     0.0000000        0.000000000   1.256637061   0.000000000
     0.0000000     0.0000000     5.0000000        0.000000000   0.000000000   1.256637061

                       Lattice parameters(A)       Cell Angles
                    a =      6.600000          alpha =   90.000000
                    b =      5.000000          beta  =   90.000000
                    c =      5.000000          gamma =   90.000000

                       Current cell volume =           165.000000       A**3
                                   density =             0.429924   AMU/A**3
                                           =             0.713905     g/cm^3

                           -------------------------------
                                     Cell Contents
                           -------------------------------
                         Total number of ions in cell =    2
                      Total number of species in cell =    2
                        Max number of any one species =    1

            xxxxxxxxxxxxxxxxxxxxxxxxxxxxxxxxxxxxxxxxxxxxxxxxxxxxxxxxxxxx
            x  Element    Atom        Fractional coordinates of atoms  x
            x            Number           u          v          w      x
            x----------------------------------------------------------x
            x  O            1         0.621212   0.500000   0.500000   x 
            x  Mn           1         0.378788   0.500000   0.500000   x 
            xxxxxxxxxxxxxxxxxxxxxxxxxxxxxxxxxxxxxxxxxxxxxxxxxxxxxxxxxxxx


                         No user defined ionic velocities

                           -------------------------------
                                   Details of Species
                           -------------------------------

                               Mass of species in AMU
                                    O   15.9994000
                                    Mn   54.9380500

                          Electric Quadrupole Moment (Barn)
                                    O   -0.0255800 Isotope 17
                                    Mn    0.3300000 Isotope 55


         Quantisation axis:    0.00000   0.00000   1.00000

         Units for Hubbard U values are eV
         xxxxxxxxxxxxxxxxxxxxxxxxxxxxxxxxxxxxxxxxxxxxxxxxxxxxxxxxxxxxxxxxxxxx
         |  Element     Atom     Hubbard U   values by orbital type         |
         |             Number      s          p          d          f       |
         |------------------------------------------------------------------|
         |O             1         0.00000    0.00000    0.00000    0.00000  |
         |Mn            1         0.00000    0.00000    0.00000    0.00000  |
         xxxxxxxxxxxxxxxxxxxxxxxxxxxxxxxxxxxxxxxxxxxxxxxxxxxxxxxxxxxxxxxxxxxx


                          Files used for pseudopotentials:
                                    O 2|1.1|17|20|23|20:21(qc=8)
                                    Mn 3|1.8|1.8|0.6|12|14|16|30U:40:31:32(qc=7)

                           -------------------------------
                              k-Points For BZ Sampling
                           -------------------------------
                       MP grid size for SCF calculation is  2  3  3
                            with an offset of   0.000  0.000  0.000
                       Number of kpoints used =             9

             +++++++++++++++++++++++++++++++++++++++++++++++++++++++
             +  Number       Fractional coordinates        Weight  +
             +-----------------------------------------------------+
             +     1  -0.250000  -0.333333  -0.333333   0.1111111  +
             +     2  -0.250000  -0.333333   0.333333   0.1111111  +
             +     3  -0.250000   0.000000  -0.333333   0.1111111  +
             +     4  -0.250000   0.000000   0.000000   0.1111111  +
             +     5  -0.250000   0.000000   0.333333   0.1111111  +
             +     6  -0.250000   0.333333   0.000000   0.1111111  +
             +     7  -0.250000   0.333333   0.333333   0.1111111  +
             +     8   0.250000  -0.333333   0.333333   0.1111111  +
             +     9   0.250000   0.333333   0.000000   0.1111111  +
             +++++++++++++++++++++++++++++++++++++++++++++++++++++++

                           -------------------------------
                               Symmetry and Constraints
                           -------------------------------

                      Maximum deviation from symmetry =  0.00000         ANG

                      Number of symmetry operations   =           1
                      Number of ionic constraints     =           3
                      Point group of crystal =     1: C1, 1, 1
                      Space group of crystal =    99: P4mm, P 4 -2

                    1 rotation    
                 (   1.00000000000   0.00000000000   0.00000000000 )
                 (   0.00000000000   1.00000000000   0.00000000000 )
                 (   0.00000000000   0.00000000000   1.00000000000 )
                    1 displacement
                 (   0.00000000000   0.00000000000   0.00000000000 )
                      symmetry related atoms: 
             O:    1
             Mn:    1


                         Centre of mass is constrained

            xxxxxxxxxxxxxxxxxxxxxxxxxxxxxxxxxxxxxxxxxxxxxxxxxxxxxxxxxxxxxx....
            x  Species       atom   co-ordinate  constraints.....         
            x-------------------------------------------------------------....
            x O                 1       x        29165.1220      0.0000      0.0000
            x O                 1       y            0.0000  29165.1220      0.0000
            x O                 1       z            0.0000      0.0000  29165.1220
            x Mn                1       x       100145.9388      0.0000      0.0000
            x Mn                1       y            0.0000 100145.9388      0.0000
            x Mn                1       z            0.0000      0.0000 100145.9388
            xxxxxxxxxxxxxxxxxxxxxxxxxxxxxxxxxxxxxxxxxxxxxxxxxxxxxxxxxxxxxx....

                         Number of cell constraints= 0
                         Cell constraints are:  1 2 3 4 5 6

                         External pressure/stress (GPa)
                          0.00000   0.00000   0.00000
                                    0.00000   0.00000
                                              0.00000
Density mixing plane wave load balancing: max      0 min      0 average      0
  
+---------------- MEMORY AND SCRATCH DISK ESTIMATES PER PROCESS --------------+
|                                                     Memory          Disk    |
| Baseline code, static data and system overhead      354.0 MB         0.0 MB |
| BLAS internal memory storage                          0.0 MB         0.0 MB |
| Model and support data                               67.2 MB       110.4 MB |
| Electronic energy minimisation requirements          51.6 MB         0.0 MB |
| Force calculation requirements                       13.8 MB         0.0 MB |
|                                               ----------------------------- |
| Approx. total storage required per process          472.8 MB       110.4 MB |
|                                                                             |
| Requirements will fluctuate during execution and may exceed these estimates |
+-----------------------------------------------------------------------------+
Calculating total energy with cut-off of  625.862 eV.
electronic_minimisation: Initialising

 Pseudo atomic calculation performed for O 2s2 2p4

 Converged in 24 iterations to a total energy of -431.0932 eV

 Pseudo atomic calculation performed for Mn 3s2 3p6 3d5 4s2

 Converged in 38 iterations to a total energy of -2902.3718 eV
  Initializing Hubbard U occ matrix: 

     Hubbard U occupation numbers
     ----------------------------
Species   Ion   l  spin               occupancies
==================================================================
  Mn       1    2   up:   0.00  0.00  1.00  1.00  1.00
                    dn:   0.00  0.00  1.00  1.00  1.00
==================================================================

electronic_minimisation: Initialising density mixing
 Initialising mixing density basis set.
Density mixing plane wave load balancing: max   5871 min   5871 average   5871
Calculating Ewald energy for ionic configuration
              Ewald: real-space energy =     359.826811 eV
        Ewald: reciprocal-space energy =      93.920754 eV
         Ewald: (sum_charge)**2 Energy =     459.468501 eV
         Ewald: (sum_charge**2) Energy =     769.135141 eV
                          Ewald Energy =    -774.856077 eV
Calculating non-Coulombic energy for ionic configuration
Symmetrising density
Calculating local potential
Calculating Hubbard U potential
 Density matrix in cubic harmonics:
     1.0000     0.0000     0.0000     0.0000     0.0000
     0.0000     0.0000     0.0000     0.0000     0.0000
     0.0000     0.0000     0.0000     0.0000     0.0000
     0.0000     0.0000     0.0000     0.0000     0.0000
     0.0000     0.0000     0.0000     0.0000     0.0000
     0.0000     0.0000     0.0000     0.0000     0.0000
     0.0000     0.0000     0.0000     1.0000     0.0000
     0.0000     0.0000     0.0000     0.0000     0.0000
     0.0000     0.0000     0.0000     0.0000     1.0000
     0.0000     0.0000     0.0000     0.0000     0.0000
 Hermiticity:        (-4.44089209850062616E-016,0.0000000000000000)
 Density matrix in cubic harmonics:
     1.0000     0.0000     0.0000     0.0000     0.0000
     0.0000     0.0000     0.0000     0.0000     0.0000
     0.0000     0.0000     0.0000     0.0000     0.0000
     0.0000     0.0000     0.0000     0.0000     0.0000
     0.0000     0.0000     0.0000     0.0000     0.0000
     0.0000     0.0000     0.0000     0.0000     0.0000
     0.0000     0.0000     0.0000     1.0000     0.0000
     0.0000     0.0000     0.0000     0.0000     0.0000
     0.0000     0.0000     0.0000     0.0000     1.0000
     0.0000     0.0000     0.0000     0.0000     0.0000
 Hermiticity:        (-4.44089209850062616E-016,0.0000000000000000)
Calculating non-local weights
Calculating KE and non-local eigenvalues to find total energy
 
Init
Exchange-correlation energy      =      -499.07913191541501874 eV
+Hartree energy                  =      2055.86480228865912068 eV
+Local pseudopotential energy    =     -5072.04198973965321784 eV
----------------------------------
Potential energy (total)         =     -3515.25631936638410480 eV
                                  
+Hubbard U energy                =        -1.91999999999999993 eV
+Kinetic energy                  =       776.91409201055114409 eV
+Non-local energy                =       152.02656221898419631 eV
+Electronic entropy term (-TS)   =         0.00000000000000000 eV
+Ewald energy (const)            =      -774.85607651874397561 eV
+non-Coulombic energy (const)    =        13.80612138473854067 eV
----------------------------------
Total free energy (E-TS)         =     -3349.28562027085354202 eV
 
NB est. 0K energy (E-0.5TS)      =     -3349.28562027085354202 eV
 
(XC correction to eigenvalue sum =        44.01690523340165129 eV)
(Hubbard U correction to eigenvalu         0.00000003000000000 eV)
 
------------------------------------------------------------------------ <-- SCF
SCF loop      Energy           Fermi           Energy gain       Timer   <-- SCF
                               energy          per atom          (sec)   <-- SCF
------------------------------------------------------------------------ <-- SCF
Initial  -3.34928562E+003  0.00000000E+000                        14.66  <-- SCF
Starting SCF cycle     1 of up to    30
 no. bands in each block=           8
Kinetic eigenvalue #   1 =     0.38348966E+02
Kinetic eigenvalue #   2 =     0.39990483E+02
Kinetic eigenvalue #   3 =     0.39990481E+02
Kinetic eigenvalue #   4 =     0.39595183E+02
Kinetic eigenvalue #   5 =     0.25112526E+02
Kinetic eigenvalue #   6 =     0.42186730E+02
Kinetic eigenvalue #   7 =     0.37391956E+02
Kinetic eigenvalue #   8 =     0.37412407E+02
Kinetic eigenvalue #   9 =     0.37900587E+02
Kinetic eigenvalue #  10 =     0.37455926E+02
Kinetic eigenvalue #  11 =     0.23372304E+02
Kinetic eigenvalue #  12 =     0.38336692E+02
Kinetic eigenvalue #  13 =     0.38452582E+02
Kinetic eigenvalue #  14 =     0.24719286E+02
Kinetic eigenvalue #  15 =     0.13655775E+02
Kinetic eigenvalue #  16 =     0.14273377E+02
Kinetic eigenvalue #  17 =     0.77296045E+01
 Calculating the R matrix for the precon Sinv operator
 Diagonalising expanded subspace
 Copying updated data back
eigenvalue    1 init= -83.96     fin= -83.96     change= 0.2188E-08
eigenvalue    2 init= -53.14     fin= -53.14     change= 0.8347E-10
eigenvalue    3 init= -53.14     fin= -53.14     change= 0.8309E-10
eigenvalue    4 init= -52.98     fin= -52.98     change= 0.5501E-08
eigenvalue    5 init= -20.26     fin= -20.26     change= 0.1164E-04
eigenvalue    6 init= -7.788     fin= -7.788     change= 0.8268E-04
eigenvalue    7 init= -7.434     fin= -7.434     change= 0.1597E-04
eigenvalue    8 init= -7.433     fin= -7.433     change= 0.1612E-04
 Checking convergence criteria
 Diagonalising expanded subspace
 Copying updated data back
eigenvalue    1 init= -83.96     fin= -83.96     change= 0.2203E-08
eigenvalue    2 init= -53.14     fin= -53.14     change= 0.8400E-10
eigenvalue    3 init= -53.14     fin= -53.14     change= 0.8362E-10
eigenvalue    4 init= -52.98     fin= -52.98     change= 0.5842E-08
eigenvalue    5 init= -20.26     fin= -20.26     change= 0.1227E-04
eigenvalue    6 init= -7.788     fin= -7.788     change= 0.8811E-04
eigenvalue    7 init= -7.434     fin= -7.434     change= 0.1723E-04
eigenvalue    8 init= -7.433     fin= -7.433     change= 0.1734E-04
 Checking convergence criteria
 Diagonalising expanded subspace
 Copying updated data back
eigenvalue    9 init= -6.168     fin= -6.168     change= 0.3687E-06
eigenvalue   10 init= -6.002     fin= -6.002     change= 0.1742E-05
eigenvalue   11 init= -4.313     fin= -4.313     change= 0.4551E-04
eigenvalue   12 init= -3.758     fin= -3.758     change= 0.1023E-04
eigenvalue   13 init= -3.730     fin= -3.730     change= 0.1866E-04
eigenvalue   14 init= -1.832     fin= -1.832     change= 0.4078E-04
eigenvalue   15 init= 0.2960     fin= 0.2960     change= 0.9072E-06
eigenvalue   16 init= 0.4258     fin= 0.4258     change= 0.8580E-06
 Checking convergence criteria
 Diagonalising expanded subspace
 Copying updated data back
eigenvalue    9 init= -6.168     fin= -6.168     change= 0.3696E-06
eigenvalue   10 init= -6.002     fin= -6.002     change= 0.1909E-05
eigenvalue   11 init= -4.313     fin= -4.313     change= 0.5004E-04
eigenvalue   12 init= -3.758     fin= -3.758     change= 0.1140E-04
eigenvalue   13 init= -3.730     fin= -3.730     change= 0.2059E-04
eigenvalue   14 init= -1.832     fin= -1.832     change= 0.4614E-04
eigenvalue   15 init= 0.2960     fin= 0.2960     change= 0.1021E-05
eigenvalue   16 init= 0.4258     fin= 0.4258     change= 0.1092E-05
 Checking convergence criteria
 Diagonalising expanded subspace
 Copying updated data back
eigenvalue   17 init=  2.638     fin=  2.638     change= 0.1694E-05
 Checking convergence criteria
 Diagonalising expanded subspace
 Copying updated data back
eigenvalue   17 init=  2.638     fin=  2.638     change= 0.3061E-05
 Checking convergence criteria
 Diagonalising expanded subspace
 Copying updated data back
eigenvalue   17 init=  2.638     fin=  2.638     change= 0.3781E-05
 Checking convergence criteria
 no. bands in each block=           8
Kinetic eigenvalue #   1 =     0.38348939E+02
Kinetic eigenvalue #   2 =     0.39990472E+02
Kinetic eigenvalue #   3 =     0.39990660E+02
Kinetic eigenvalue #   4 =     0.39595175E+02
Kinetic eigenvalue #   5 =     0.25099043E+02
Kinetic eigenvalue #   6 =     0.42122292E+02
Kinetic eigenvalue #   7 =     0.37333011E+02
Kinetic eigenvalue #   8 =     0.37797759E+02
Kinetic eigenvalue #   9 =     0.37459158E+02
Kinetic eigenvalue #  10 =     0.37726085E+02
Kinetic eigenvalue #  11 =     0.20289061E+02
Kinetic eigenvalue #  12 =     0.37545413E+02
Kinetic eigenvalue #  13 =     0.41168583E+02
Kinetic eigenvalue #  14 =     0.25570923E+02
Kinetic eigenvalue #  15 =     0.13556301E+02
Kinetic eigenvalue #  16 =     0.80528776E+01
Kinetic eigenvalue #  17 =     0.17119358E+02
 Calculating the R matrix for the precon Sinv operator
 Diagonalising expanded subspace
 Copying updated data back
eigenvalue    1 init= -83.96     fin= -83.96     change= 0.2320E-08
eigenvalue    2 init= -53.14     fin= -53.14     change= 0.8271E-10
eigenvalue    3 init= -53.14     fin= -53.14     change= 0.6493E-10
eigenvalue    4 init= -52.98     fin= -52.98     change= 0.4992E-08
eigenvalue    5 init= -20.26     fin= -20.26     change= 0.1040E-04
eigenvalue    6 init= -7.793     fin= -7.793     change= 0.7445E-04
eigenvalue    7 init= -7.438     fin= -7.438     change= 0.1717E-04
eigenvalue    8 init= -7.404     fin= -7.404     change= 0.9121E-05
 Checking convergence criteria
 Diagonalising expanded subspace
 Copying updated data back
eigenvalue    1 init= -83.96     fin= -83.96     change= 0.2363E-08
eigenvalue    2 init= -53.14     fin= -53.14     change= 0.8350E-10
eigenvalue    3 init= -53.14     fin= -53.14     change= 0.6544E-10
eigenvalue    4 init= -52.98     fin= -52.98     change= 0.5299E-08
eigenvalue    5 init= -20.26     fin= -20.26     change= 0.1095E-04
eigenvalue    6 init= -7.793     fin= -7.793     change= 0.7953E-04
eigenvalue    7 init= -7.438     fin= -7.438     change= 0.1849E-04
eigenvalue    8 init= -7.404     fin= -7.404     change= 0.9678E-05
 Checking convergence criteria
 Diagonalising expanded subspace
 Copying updated data back
eigenvalue    9 init= -6.203     fin= -6.203     change= 0.5846E-06
eigenvalue   10 init= -5.982     fin= -5.982     change= 0.1176E-05
eigenvalue   11 init= -4.558     fin= -4.558     change= 0.3616E-04
eigenvalue   12 init= -3.777     fin= -3.777     change= 0.1534E-04
eigenvalue   13 init= -3.630     fin= -3.630     change= 0.5570E-05
eigenvalue   14 init= -2.031     fin= -2.031     change= 0.4046E-04
eigenvalue   15 init= -.7132E-01 fin= -.7132E-01 change= 0.1078E-05
eigenvalue   16 init=  2.019     fin=  2.019     change= 0.4372E-05
 Checking convergence criteria
 Diagonalising expanded subspace
 Copying updated data back
eigenvalue    9 init= -6.203     fin= -6.203     change= 0.5960E-06
eigenvalue   10 init= -5.982     fin= -5.982     change= 0.1270E-05
eigenvalue   11 init= -4.558     fin= -4.558     change= 0.4039E-04
eigenvalue   12 init= -3.777     fin= -3.777     change= 0.1720E-04
eigenvalue   13 init= -3.630     fin= -3.630     change= 0.5993E-05
eigenvalue   14 init= -2.031     fin= -2.031     change= 0.4684E-04
eigenvalue   15 init= -.7132E-01 fin= -.7132E-01 change= 0.1317E-05
eigenvalue   16 init=  2.019     fin=  2.019     change= 0.5781E-05
 Checking convergence criteria
 Diagonalising expanded subspace
 Copying updated data back
eigenvalue    9 init= -6.203     fin= -6.203     change= 0.5971E-06
eigenvalue   10 init= -5.982     fin= -5.982     change= 0.1270E-05
eigenvalue   11 init= -4.558     fin= -4.558     change= 0.4072E-04
eigenvalue   12 init= -3.777     fin= -3.777     change= 0.1721E-04
eigenvalue   13 init= -3.630     fin= -3.630     change= 0.6002E-05
eigenvalue   14 init= -2.031     fin= -2.031     change= 0.4758E-04
eigenvalue   15 init= -.7132E-01 fin= -.7132E-01 change= 0.1323E-05
eigenvalue   16 init=  2.019     fin=  2.019     change= 0.6340E-05
 Checking convergence criteria
 Diagonalising expanded subspace
 Copying updated data back
eigenvalue   17 init=  2.479     fin=  2.479     change= 0.2286E-06
 Checking convergence criteria
 no. bands in each block=           8
Kinetic eigenvalue #   1 =     0.38348954E+02
Kinetic eigenvalue #   2 =     0.39990472E+02
Kinetic eigenvalue #   3 =     0.39990660E+02
Kinetic eigenvalue #   4 =     0.39595175E+02
Kinetic eigenvalue #   5 =     0.25099043E+02
Kinetic eigenvalue #   6 =     0.42122290E+02
Kinetic eigenvalue #   7 =     0.37333009E+02
Kinetic eigenvalue #   8 =     0.37797753E+02
Kinetic eigenvalue #   9 =     0.37459157E+02
Kinetic eigenvalue #  10 =     0.37726085E+02
Kinetic eigenvalue #  11 =     0.20289048E+02
Kinetic eigenvalue #  12 =     0.37545412E+02
Kinetic eigenvalue #  13 =     0.41168606E+02
Kinetic eigenvalue #  14 =     0.25570897E+02
Kinetic eigenvalue #  15 =     0.13556246E+02
Kinetic eigenvalue #  16 =     0.80526225E+01
Kinetic eigenvalue #  17 =     0.17119021E+02
 Calculating the R matrix for the precon Sinv operator
 Diagonalising expanded subspace
 Copying updated data back
eigenvalue    1 init= -83.96     fin= -83.96     change= 0.2194E-08
eigenvalue    2 init= -53.14     fin= -53.14     change= 0.8249E-10
eigenvalue    3 init= -53.14     fin= -53.14     change= 0.6501E-10
eigenvalue    4 init= -52.98     fin= -52.98     change= 0.4989E-08
eigenvalue    5 init= -20.26     fin= -20.26     change= 0.1041E-04
eigenvalue    6 init= -7.793     fin= -7.793     change= 0.7458E-04
eigenvalue    7 init= -7.438     fin= -7.438     change= 0.1717E-04
eigenvalue    8 init= -7.404     fin= -7.404     change= 0.9116E-05
 Checking convergence criteria
 Diagonalising expanded subspace
 Copying updated data back
eigenvalue    1 init= -83.96     fin= -83.96     change= 0.2231E-08
eigenvalue    2 init= -53.14     fin= -53.14     change= 0.8330E-10
eigenvalue    3 init= -53.14     fin= -53.14     change= 0.6556E-10
eigenvalue    4 init= -52.98     fin= -52.98     change= 0.5299E-08
eigenvalue    5 init= -20.26     fin= -20.26     change= 0.1096E-04
eigenvalue    6 init= -7.793     fin= -7.793     change= 0.7959E-04
eigenvalue    7 init= -7.438     fin= -7.438     change= 0.1848E-04
eigenvalue    8 init= -7.404     fin= -7.404     change= 0.9672E-05
 Checking convergence criteria
 Diagonalising expanded subspace
 Copying updated data back
eigenvalue    9 init= -6.203     fin= -6.203     change= 0.5850E-06
eigenvalue   10 init= -5.982     fin= -5.982     change= 0.1176E-05
eigenvalue   11 init= -4.558     fin= -4.558     change= 0.3616E-04
eigenvalue   12 init= -3.777     fin= -3.777     change= 0.1535E-04
eigenvalue   13 init= -3.630     fin= -3.630     change= 0.5553E-05
eigenvalue   14 init= -2.031     fin= -2.031     change= 0.4047E-04
eigenvalue   15 init= -.7132E-01 fin= -.7132E-01 change= 0.1088E-05
eigenvalue   16 init=  2.019     fin=  2.019     change= 0.4346E-05
 Checking convergence criteria
 Diagonalising expanded subspace
 Copying updated data back
eigenvalue    9 init= -6.203     fin= -6.203     change= 0.5969E-06
eigenvalue   10 init= -5.982     fin= -5.982     change= 0.1271E-05
eigenvalue   11 init= -4.558     fin= -4.558     change= 0.4032E-04
eigenvalue   12 init= -3.777     fin= -3.777     change= 0.1716E-04
eigenvalue   13 init= -3.630     fin= -3.630     change= 0.5973E-05
eigenvalue   14 init= -2.031     fin= -2.031     change= 0.4671E-04
eigenvalue   15 init= -.7132E-01 fin= -.7132E-01 change= 0.1331E-05
eigenvalue   16 init=  2.019     fin=  2.019     change= 0.5739E-05
 Checking convergence criteria
 Diagonalising expanded subspace
 Copying updated data back
eigenvalue    9 init= -6.203     fin= -6.203     change= 0.5986E-06
eigenvalue   10 init= -5.982     fin= -5.982     change= 0.1271E-05
eigenvalue   11 init= -4.558     fin= -4.558     change= 0.4075E-04
eigenvalue   12 init= -3.777     fin= -3.777     change= 0.1718E-04
eigenvalue   13 init= -3.630     fin= -3.630     change= 0.5984E-05
eigenvalue   14 init= -2.031     fin= -2.031     change= 0.4764E-04
eigenvalue   15 init= -.7132E-01 fin= -.7132E-01 change= 0.1337E-05
eigenvalue   16 init=  2.019     fin=  2.019     change= 0.6332E-05
 Checking convergence criteria
 Diagonalising expanded subspace
 Copying updated data back
eigenvalue   17 init=  2.479     fin=  2.479     change= 0.2364E-06
 Checking convergence criteria
 no. bands in each block=           8
Kinetic eigenvalue #   1 =     0.38348971E+02
Kinetic eigenvalue #   2 =     0.39990483E+02
Kinetic eigenvalue #   3 =     0.39990481E+02
Kinetic eigenvalue #   4 =     0.39595183E+02
Kinetic eigenvalue #   5 =     0.25112526E+02
Kinetic eigenvalue #   6 =     0.42186747E+02
Kinetic eigenvalue #   7 =     0.37391950E+02
Kinetic eigenvalue #   8 =     0.37412406E+02
Kinetic eigenvalue #   9 =     0.37900587E+02
Kinetic eigenvalue #  10 =     0.37455932E+02
Kinetic eigenvalue #  11 =     0.23372275E+02
Kinetic eigenvalue #  12 =     0.38336693E+02
Kinetic eigenvalue #  13 =     0.38452615E+02
Kinetic eigenvalue #  14 =     0.24719402E+02
Kinetic eigenvalue #  15 =     0.13655755E+02
Kinetic eigenvalue #  16 =     0.14273376E+02
Kinetic eigenvalue #  17 =     0.77276904E+01
 Calculating the R matrix for the precon Sinv operator
 Diagonalising expanded subspace
 Copying updated data back
eigenvalue    1 init= -83.96     fin= -83.96     change= 0.2153E-08
eigenvalue    2 init= -53.14     fin= -53.14     change= 0.8346E-10
eigenvalue    3 init= -53.14     fin= -53.14     change= 0.8280E-10
eigenvalue    4 init= -52.98     fin= -52.98     change= 0.5509E-08
eigenvalue    5 init= -20.26     fin= -20.26     change= 0.1165E-04
eigenvalue    6 init= -7.788     fin= -7.788     change= 0.8287E-04
eigenvalue    7 init= -7.434     fin= -7.434     change= 0.1596E-04
eigenvalue    8 init= -7.433     fin= -7.433     change= 0.1612E-04
 Checking convergence criteria
 Diagonalising expanded subspace
 Copying updated data back
eigenvalue    1 init= -83.96     fin= -83.96     change= 0.2167E-08
eigenvalue    2 init= -53.14     fin= -53.14     change= 0.8409E-10
eigenvalue    3 init= -53.14     fin= -53.14     change= 0.8338E-10
eigenvalue    4 init= -52.98     fin= -52.98     change= 0.5846E-08
eigenvalue    5 init= -20.26     fin= -20.26     change= 0.1227E-04
eigenvalue    6 init= -7.788     fin= -7.788     change= 0.8830E-04
eigenvalue    7 init= -7.434     fin= -7.434     change= 0.1720E-04
eigenvalue    8 init= -7.433     fin= -7.433     change= 0.1734E-04
 Checking convergence criteria
 Diagonalising expanded subspace
 Copying updated data back
eigenvalue    9 init= -6.168     fin= -6.168     change= 0.3687E-06
eigenvalue   10 init= -6.002     fin= -6.002     change= 0.1740E-05
eigenvalue   11 init= -4.313     fin= -4.313     change= 0.4612E-04
eigenvalue   12 init= -3.758     fin= -3.758     change= 0.1023E-04
eigenvalue   13 init= -3.730     fin= -3.730     change= 0.1863E-04
eigenvalue   14 init= -1.832     fin= -1.832     change= 0.4132E-04
eigenvalue   15 init= 0.2960     fin= 0.2960     change= 0.9309E-06
eigenvalue   16 init= 0.4258     fin= 0.4258     change= 0.8583E-06
 Checking convergence criteria
 Diagonalising expanded subspace
 Copying updated data back
eigenvalue    9 init= -6.168     fin= -6.168     change= 0.3696E-06
eigenvalue   10 init= -6.002     fin= -6.002     change= 0.1907E-05
eigenvalue   11 init= -4.313     fin= -4.313     change= 0.5042E-04
eigenvalue   12 init= -3.758     fin= -3.758     change= 0.1140E-04
eigenvalue   13 init= -3.730     fin= -3.730     change= 0.2053E-04
eigenvalue   14 init= -1.832     fin= -1.832     change= 0.4647E-04
eigenvalue   15 init= 0.2960     fin= 0.2960     change= 0.1059E-05
eigenvalue   16 init= 0.4258     fin= 0.4258     change= 0.1093E-05
 Checking convergence criteria
 Diagonalising expanded subspace
 Copying updated data back
eigenvalue   17 init=  2.638     fin=  2.638     change= 0.2302E-05
 Checking convergence criteria
 Diagonalising expanded subspace
 Copying updated data back
eigenvalue   17 init=  2.638     fin=  2.638     change= 0.3536E-05
 Checking convergence criteria
 Diagonalising expanded subspace
 Copying updated data back
eigenvalue   17 init=  2.638     fin=  2.638     change= 0.4301E-05
 Checking convergence criteria
 no. bands in each block=           8
Kinetic eigenvalue #   1 =     0.38348960E+02
Kinetic eigenvalue #   2 =     0.39990472E+02
Kinetic eigenvalue #   3 =     0.39990660E+02
Kinetic eigenvalue #   4 =     0.39595175E+02
Kinetic eigenvalue #   5 =     0.25099043E+02
Kinetic eigenvalue #   6 =     0.42122289E+02
Kinetic eigenvalue #   7 =     0.37333012E+02
Kinetic eigenvalue #   8 =     0.37797753E+02
Kinetic eigenvalue #   9 =     0.37459155E+02
Kinetic eigenvalue #  10 =     0.37726085E+02
Kinetic eigenvalue #  11 =     0.20289011E+02
Kinetic eigenvalue #  12 =     0.37545438E+02
Kinetic eigenvalue #  13 =     0.41168603E+02
Kinetic eigenvalue #  14 =     0.25571076E+02
Kinetic eigenvalue #  15 =     0.13556085E+02
Kinetic eigenvalue #  16 =     0.80522571E+01
Kinetic eigenvalue #  17 =     0.17118951E+02
 Calculating the R matrix for the precon Sinv operator
 Diagonalising expanded subspace
 Copying updated data back
eigenvalue    1 init= -83.96     fin= -83.96     change= 0.2164E-08
eigenvalue    2 init= -53.14     fin= -53.14     change= 0.8217E-10
eigenvalue    3 init= -53.14     fin= -53.14     change= 0.6506E-10
eigenvalue    4 init= -52.98     fin= -52.98     change= 0.4990E-08
eigenvalue    5 init= -20.26     fin= -20.26     change= 0.1040E-04
eigenvalue    6 init= -7.793     fin= -7.793     change= 0.7456E-04
eigenvalue    7 init= -7.438     fin= -7.438     change= 0.1717E-04
eigenvalue    8 init= -7.404     fin= -7.404     change= 0.9117E-05
 Checking convergence criteria
 Diagonalising expanded subspace
 Copying updated data back
eigenvalue    1 init= -83.96     fin= -83.96     change= 0.2199E-08
eigenvalue    2 init= -53.14     fin= -53.14     change= 0.8297E-10
eigenvalue    3 init= -53.14     fin= -53.14     change= 0.6560E-10
eigenvalue    4 init= -52.98     fin= -52.98     change= 0.5300E-08
eigenvalue    5 init= -20.26     fin= -20.26     change= 0.1096E-04
eigenvalue    6 init= -7.793     fin= -7.793     change= 0.7958E-04
eigenvalue    7 init= -7.438     fin= -7.438     change= 0.1849E-04
eigenvalue    8 init= -7.404     fin= -7.404     change= 0.9672E-05
 Checking convergence criteria
 Diagonalising expanded subspace
 Copying updated data back
eigenvalue    9 init= -6.203     fin= -6.203     change= 0.5843E-06
eigenvalue   10 init= -5.982     fin= -5.982     change= 0.1176E-05
eigenvalue   11 init= -4.558     fin= -4.558     change= 0.3625E-04
eigenvalue   12 init= -3.777     fin= -3.777     change= 0.1530E-04
eigenvalue   13 init= -3.630     fin= -3.630     change= 0.5568E-05
eigenvalue   14 init= -2.031     fin= -2.031     change= 0.4034E-04
eigenvalue   15 init= -.7132E-01 fin= -.7132E-01 change= 0.1132E-05
eigenvalue   16 init=  2.019     fin=  2.019     change= 0.4434E-05
 Checking convergence criteria
 Diagonalising expanded subspace
 Copying updated data back
eigenvalue    9 init= -6.203     fin= -6.203     change= 0.5959E-06
eigenvalue   10 init= -5.982     fin= -5.982     change= 0.1270E-05
eigenvalue   11 init= -4.558     fin= -4.558     change= 0.4012E-04
eigenvalue   12 init= -3.777     fin= -3.777     change= 0.1710E-04
eigenvalue   13 init= -3.630     fin= -3.630     change= 0.6003E-05
eigenvalue   14 init= -2.031     fin= -2.031     change= 0.4597E-04
eigenvalue   15 init= -.7132E-01 fin= -.7132E-01 change= 0.1399E-05
eigenvalue   16 init=  2.019     fin=  2.019     change= 0.5719E-05
 Checking convergence criteria
 Diagonalising expanded subspace
 Copying updated data back
eigenvalue   17 init=  2.479     fin=  2.479     change= 0.2326E-06
 Checking convergence criteria
 no. bands in each block=           8
Kinetic eigenvalue #   1 =     0.37872827E+02
Kinetic eigenvalue #   2 =     0.39259389E+02
Kinetic eigenvalue #   3 =     0.39828255E+02
Kinetic eigenvalue #   4 =     0.39828260E+02
Kinetic eigenvalue #   5 =     0.25186723E+02
Kinetic eigenvalue #   6 =     0.43805622E+02
Kinetic eigenvalue #   7 =     0.37875739E+02
Kinetic eigenvalue #   8 =     0.37953623E+02
Kinetic eigenvalue #   9 =     0.36819316E+02
Kinetic eigenvalue #  10 =     0.32265673E+02
Kinetic eigenvalue #  11 =     0.22439585E+02
Kinetic eigenvalue #  12 =     0.36089903E+02
Kinetic eigenvalue #  13 =     0.36345366E+02
Kinetic eigenvalue #  14 =     0.23975481E+02
Kinetic eigenvalue #  15 =     0.13730900E+02
Kinetic eigenvalue #  16 =     0.14861435E+02
Kinetic eigenvalue #  17 =     0.80852684E+01
 Calculating the R matrix for the precon Sinv operator
 Diagonalising expanded subspace
 Copying updated data back
eigenvalue    1 init= -80.00     fin= -80.00     change= 0.3025E-08
eigenvalue    2 init= -49.54     fin= -49.54     change= 0.1576E-07
eigenvalue    3 init= -49.09     fin= -49.09     change= 0.1445E-09
eigenvalue    4 init= -49.09     fin= -49.09     change= 0.1455E-09
eigenvalue    5 init= -19.79     fin= -19.79     change= 0.1993E-04
eigenvalue    6 init= -6.708     fin= -6.708     change= 0.9209E-04
eigenvalue    7 init= -5.961     fin= -5.961     change= 0.1653E-04
eigenvalue    8 init= -5.958     fin= -5.958     change= 0.9842E-05
 Checking convergence criteria
 Diagonalising expanded subspace
 Copying updated data back
eigenvalue    1 init= -80.00     fin= -80.00     change= 0.3098E-08
eigenvalue    2 init= -49.54     fin= -49.54     change= 0.1658E-07
eigenvalue    3 init= -49.09     fin= -49.09     change= 0.1455E-09
eigenvalue    4 init= -49.09     fin= -49.09     change= 0.1465E-09
eigenvalue    5 init= -19.79     fin= -19.79     change= 0.2092E-04
eigenvalue    6 init= -6.708     fin= -6.708     change= 0.9765E-04
eigenvalue    7 init= -5.961     fin= -5.961     change= 0.1798E-04
eigenvalue    8 init= -5.958     fin= -5.958     change= 0.1052E-04
 Checking convergence criteria
 Diagonalising expanded subspace
 Copying updated data back
eigenvalue    9 init= -2.469     fin= -2.469     change= 0.1494E-04
eigenvalue   10 init= -2.345     fin= -2.345     change= 0.7855E-04
eigenvalue   11 init= -2.060     fin= -2.060     change= 0.1422E-03
eigenvalue   12 init= -1.342     fin= -1.342     change= 0.2381E-04
eigenvalue   13 init= -1.312     fin= -1.312     change= 0.8705E-04
eigenvalue   14 init= -.3035     fin= -.3037     change= 0.1383E-03
eigenvalue   15 init=  1.602     fin=  1.602     change= 0.1595E-05
eigenvalue   16 init=  1.832     fin=  1.832     change= 0.1537E-05
 Checking convergence criteria
 Diagonalising expanded subspace
 Copying updated data back
eigenvalue    9 init= -2.469     fin= -2.469     change= 0.1566E-04
eigenvalue   10 init= -2.345     fin= -2.345     change= 0.8534E-04
eigenvalue   11 init= -2.060     fin= -2.060     change= 0.1562E-03
eigenvalue   12 init= -1.342     fin= -1.342     change= 0.2704E-04
eigenvalue   13 init= -1.312     fin= -1.312     change= 0.9677E-04
eigenvalue   14 init= -.3035     fin= -.3037     change= 0.1554E-03
eigenvalue   15 init=  1.602     fin=  1.602     change= 0.1893E-05
eigenvalue   16 init=  1.832     fin=  1.832     change= 0.1949E-05
 Checking convergence criteria
 Diagonalising expanded subspace
 Copying updated data back
eigenvalue   17 init=  3.127     fin=  3.127     change= 0.9969E-05
 Checking convergence criteria
 Diagonalising expanded subspace
 Copying updated data back
eigenvalue   17 init=  3.127     fin=  3.127     change= 0.1551E-04
 Checking convergence criteria
 Diagonalising expanded subspace
 Copying updated data back
eigenvalue   17 init=  3.127     fin=  3.127     change= 0.1817E-04
 Checking convergence criteria
 no. bands in each block=           8
Kinetic eigenvalue #   1 =     0.37872752E+02
Kinetic eigenvalue #   2 =     0.39259377E+02
Kinetic eigenvalue #   3 =     0.39828243E+02
Kinetic eigenvalue #   4 =     0.39828505E+02
Kinetic eigenvalue #   5 =     0.25173050E+02
Kinetic eigenvalue #   6 =     0.43723010E+02
Kinetic eigenvalue #   7 =     0.37749840E+02
Kinetic eigenvalue #   8 =     0.38728885E+02
Kinetic eigenvalue #   9 =     0.19304159E+02
Kinetic eigenvalue #  10 =     0.31832881E+02
Kinetic eigenvalue #  11 =     0.36757792E+02
Kinetic eigenvalue #  12 =     0.34455454E+02
Kinetic eigenvalue #  13 =     0.39782238E+02
Kinetic eigenvalue #  14 =     0.24529100E+02
Kinetic eigenvalue #  15 =     0.14893019E+02
Kinetic eigenvalue #  16 =     0.89241411E+01
Kinetic eigenvalue #  17 =     0.16019077E+02
 Calculating the R matrix for the precon Sinv operator
 Diagonalising expanded subspace
 Copying updated data back
eigenvalue    1 init= -80.00     fin= -80.00     change= 0.2642E-08
eigenvalue    2 init= -49.54     fin= -49.54     change= 0.1577E-07
eigenvalue    3 init= -49.09     fin= -49.09     change= 0.1451E-09
eigenvalue    4 init= -49.09     fin= -49.09     change= 0.1011E-09
eigenvalue    5 init= -19.79     fin= -19.79     change= 0.1996E-04
eigenvalue    6 init= -6.712     fin= -6.712     change= 0.9378E-04
eigenvalue    7 init= -5.968     fin= -5.968     change= 0.1256E-04
eigenvalue    8 init= -5.904     fin= -5.904     change= 0.7535E-05
 Checking convergence criteria
 Diagonalising expanded subspace
 Copying updated data back
eigenvalue    1 init= -80.00     fin= -80.00     change= 0.2682E-08
eigenvalue    2 init= -49.54     fin= -49.54     change= 0.1659E-07
eigenvalue    3 init= -49.09     fin= -49.09     change= 0.1461E-09
eigenvalue    4 init= -49.09     fin= -49.09     change= 0.1014E-09
eigenvalue    5 init= -19.79     fin= -19.79     change= 0.2110E-04
eigenvalue    6 init= -6.712     fin= -6.712     change= 0.1015E-03
eigenvalue    7 init= -5.968     fin= -5.968     change= 0.1336E-04
eigenvalue    8 init= -5.904     fin= -5.904     change= 0.7881E-05
 Checking convergence criteria
 Diagonalising expanded subspace
 Copying updated data back
eigenvalue    9 init= -2.620     fin= -2.620     change= 0.8586E-04
eigenvalue   10 init= -2.349     fin= -2.349     change= 0.7887E-04
eigenvalue   11 init= -2.289     fin= -2.289     change= 0.3942E-04
eigenvalue   12 init= -1.378     fin= -1.378     change= 0.5621E-04
eigenvalue   13 init= -1.202     fin= -1.202     change= 0.1820E-04
eigenvalue   14 init= -.5142     fin= -.5143     change= 0.1750E-03
eigenvalue   15 init=  1.204     fin=  1.204     change= 0.3190E-05
eigenvalue   16 init=  2.525     fin=  2.525     change= 0.3046E-04
 Checking convergence criteria
 Diagonalising expanded subspace
 Copying updated data back
eigenvalue    9 init= -2.620     fin= -2.620     change= 0.9365E-04
eigenvalue   10 init= -2.349     fin= -2.349     change= 0.8729E-04
eigenvalue   11 init= -2.289     fin= -2.289     change= 0.4142E-04
eigenvalue   12 init= -1.378     fin= -1.378     change= 0.6354E-04
eigenvalue   13 init= -1.202     fin= -1.202     change= 0.1955E-04
eigenvalue   14 init= -.5142     fin= -.5144     change= 0.2015E-03
eigenvalue   15 init=  1.204     fin=  1.204     change= 0.3916E-05
eigenvalue   16 init=  2.525     fin=  2.525     change= 0.4069E-04
 Checking convergence criteria
 Diagonalising expanded subspace
 Copying updated data back
eigenvalue    9 init= -2.620     fin= -2.620     change= 0.9389E-04
eigenvalue   10 init= -2.349     fin= -2.349     change= 0.8758E-04
eigenvalue   11 init= -2.289     fin= -2.289     change= 0.4142E-04
eigenvalue   12 init= -1.378     fin= -1.378     change= 0.6386E-04
eigenvalue   13 init= -1.202     fin= -1.202     change= 0.1955E-04
eigenvalue   14 init= -.5142     fin= -.5144     change= 0.2033E-03
eigenvalue   15 init=  1.204     fin=  1.204     change= 0.3938E-05
eigenvalue   16 init=  2.525     fin=  2.525     change= 0.4245E-04
 Checking convergence criteria
 Diagonalising expanded subspace
 Copying updated data back
eigenvalue   17 init=  4.237     fin=  4.237     change= 0.4397E-06
 Checking convergence criteria
 no. bands in each block=           8
Kinetic eigenvalue #   1 =     0.37872751E+02
Kinetic eigenvalue #   2 =     0.39259377E+02
Kinetic eigenvalue #   3 =     0.39828243E+02
Kinetic eigenvalue #   4 =     0.39828505E+02
Kinetic eigenvalue #   5 =     0.25173050E+02
Kinetic eigenvalue #   6 =     0.43723008E+02
Kinetic eigenvalue #   7 =     0.37749840E+02
Kinetic eigenvalue #   8 =     0.38728884E+02
Kinetic eigenvalue #   9 =     0.19304442E+02
Kinetic eigenvalue #  10 =     0.31832881E+02
Kinetic eigenvalue #  11 =     0.36757791E+02
Kinetic eigenvalue #  12 =     0.34455446E+02
Kinetic eigenvalue #  13 =     0.39782223E+02
Kinetic eigenvalue #  14 =     0.24529668E+02
Kinetic eigenvalue #  15 =     0.14893033E+02
Kinetic eigenvalue #  16 =     0.89240129E+01
Kinetic eigenvalue #  17 =     0.16026346E+02
 Calculating the R matrix for the precon Sinv operator
 Diagonalising expanded subspace
 Copying updated data back
eigenvalue    1 init= -80.00     fin= -80.00     change= 0.2646E-08
eigenvalue    2 init= -49.54     fin= -49.54     change= 0.1578E-07
eigenvalue    3 init= -49.09     fin= -49.09     change= 0.1451E-09
eigenvalue    4 init= -49.09     fin= -49.09     change= 0.1007E-09
eigenvalue    5 init= -19.79     fin= -19.79     change= 0.1996E-04
eigenvalue    6 init= -6.712     fin= -6.712     change= 0.9380E-04
eigenvalue    7 init= -5.968     fin= -5.968     change= 0.1256E-04
eigenvalue    8 init= -5.904     fin= -5.904     change= 0.7484E-05
 Checking convergence criteria
 Diagonalising expanded subspace
 Copying updated data back
eigenvalue    1 init= -80.00     fin= -80.00     change= 0.2687E-08
eigenvalue    2 init= -49.54     fin= -49.54     change= 0.1660E-07
eigenvalue    3 init= -49.09     fin= -49.09     change= 0.1461E-09
eigenvalue    4 init= -49.09     fin= -49.09     change= 0.1010E-09
eigenvalue    5 init= -19.79     fin= -19.79     change= 0.2110E-04
eigenvalue    6 init= -6.712     fin= -6.712     change= 0.1016E-03
eigenvalue    7 init= -5.968     fin= -5.968     change= 0.1336E-04
eigenvalue    8 init= -5.904     fin= -5.904     change= 0.7823E-05
 Checking convergence criteria
 Diagonalising expanded subspace
 Copying updated data back
eigenvalue    9 init= -2.620     fin= -2.620     change= 0.8592E-04
eigenvalue   10 init= -2.349     fin= -2.349     change= 0.7935E-04
eigenvalue   11 init= -2.289     fin= -2.289     change= 0.3941E-04
eigenvalue   12 init= -1.378     fin= -1.378     change= 0.5625E-04
eigenvalue   13 init= -1.202     fin= -1.202     change= 0.1806E-04
eigenvalue   14 init= -.5142     fin= -.5143     change= 0.1739E-03
eigenvalue   15 init=  1.204     fin=  1.204     change= 0.3251E-05
eigenvalue   16 init=  2.525     fin=  2.525     change= 0.3059E-04
 Checking convergence criteria
 Diagonalising expanded subspace
 Copying updated data back
eigenvalue    9 init= -2.620     fin= -2.620     change= 0.9364E-04
eigenvalue   10 init= -2.349     fin= -2.349     change= 0.8769E-04
eigenvalue   11 init= -2.289     fin= -2.289     change= 0.4141E-04
eigenvalue   12 init= -1.378     fin= -1.378     change= 0.6348E-04
eigenvalue   13 init= -1.202     fin= -1.202     change= 0.1939E-04
eigenvalue   14 init= -.5142     fin= -.5144     change= 0.1997E-03
eigenvalue   15 init=  1.204     fin=  1.204     change= 0.3998E-05
eigenvalue   16 init=  2.525     fin=  2.525     change= 0.4078E-04
 Checking convergence criteria
 Diagonalising expanded subspace
 Copying updated data back
eigenvalue    9 init= -2.620     fin= -2.620     change= 0.9399E-04
eigenvalue   10 init= -2.349     fin= -2.349     change= 0.8799E-04
eigenvalue   11 init= -2.289     fin= -2.289     change= 0.4141E-04
eigenvalue   12 init= -1.378     fin= -1.378     change= 0.6396E-04
eigenvalue   13 init= -1.202     fin= -1.202     change= 0.1941E-04
eigenvalue   14 init= -.5142     fin= -.5144     change= 0.2017E-03
eigenvalue   15 init=  1.204     fin=  1.204     change= 0.4033E-05
eigenvalue   16 init=  2.525     fin=  2.525     change= 0.4250E-04
 Checking convergence criteria
 Diagonalising expanded subspace
 Copying updated data back
eigenvalue   17 init=  4.237     fin=  4.237     change= 0.4468E-06
 Checking convergence criteria
 no. bands in each block=           8
Kinetic eigenvalue #   1 =     0.37872810E+02
Kinetic eigenvalue #   2 =     0.39259389E+02
Kinetic eigenvalue #   3 =     0.39828255E+02
Kinetic eigenvalue #   4 =     0.39828260E+02
Kinetic eigenvalue #   5 =     0.25186721E+02
Kinetic eigenvalue #   6 =     0.43805574E+02
Kinetic eigenvalue #   7 =     0.37875726E+02
Kinetic eigenvalue #   8 =     0.37953623E+02
Kinetic eigenvalue #   9 =     0.36819317E+02
Kinetic eigenvalue #  10 =     0.32265597E+02
Kinetic eigenvalue #  11 =     0.22439552E+02
Kinetic eigenvalue #  12 =     0.36089907E+02
Kinetic eigenvalue #  13 =     0.36345377E+02
Kinetic eigenvalue #  14 =     0.23975518E+02
Kinetic eigenvalue #  15 =     0.13729851E+02
Kinetic eigenvalue #  16 =     0.14861414E+02
Kinetic eigenvalue #  17 =     0.80823873E+01
 Calculating the R matrix for the precon Sinv operator
 Diagonalising expanded subspace
 Copying updated data back
eigenvalue    1 init= -80.00     fin= -80.00     change= 0.3088E-08
eigenvalue    2 init= -49.54     fin= -49.54     change= 0.1572E-07
eigenvalue    3 init= -49.09     fin= -49.09     change= 0.1444E-09
eigenvalue    4 init= -49.09     fin= -49.09     change= 0.1456E-09
eigenvalue    5 init= -19.79     fin= -19.79     change= 0.1986E-04
eigenvalue    6 init= -6.708     fin= -6.708     change= 0.9140E-04
eigenvalue    7 init= -5.961     fin= -5.961     change= 0.1655E-04
eigenvalue    8 init= -5.958     fin= -5.958     change= 0.9842E-05
 Checking convergence criteria
 Diagonalising expanded subspace
 Copying updated data back
eigenvalue    1 init= -80.00     fin= -80.00     change= 0.3160E-08
eigenvalue    2 init= -49.54     fin= -49.54     change= 0.1655E-07
eigenvalue    3 init= -49.09     fin= -49.09     change= 0.1454E-09
eigenvalue    4 init= -49.09     fin= -49.09     change= 0.1466E-09
eigenvalue    5 init= -19.79     fin= -19.79     change= 0.2090E-04
eigenvalue    6 init= -6.708     fin= -6.708     change= 0.9723E-04
eigenvalue    7 init= -5.961     fin= -5.961     change= 0.1802E-04
eigenvalue    8 init= -5.958     fin= -5.958     change= 0.1052E-04
 Checking convergence criteria
 Diagonalising expanded subspace
 Copying updated data back
eigenvalue    9 init= -2.469     fin= -2.469     change= 0.1494E-04
eigenvalue   10 init= -2.345     fin= -2.345     change= 0.7887E-04
eigenvalue   11 init= -2.060     fin= -2.060     change= 0.1428E-03
eigenvalue   12 init= -1.342     fin= -1.342     change= 0.2379E-04
eigenvalue   13 init= -1.312     fin= -1.312     change= 0.8686E-04
eigenvalue   14 init= -.3035     fin= -.3037     change= 0.1387E-03
eigenvalue   15 init=  1.602     fin=  1.602     change= 0.1676E-05
eigenvalue   16 init=  1.832     fin=  1.832     change= 0.1538E-05
 Checking convergence criteria
 Diagonalising expanded subspace
 Copying updated data back
eigenvalue    9 init= -2.469     fin= -2.469     change= 0.1566E-04
eigenvalue   10 init= -2.345     fin= -2.345     change= 0.8563E-04
eigenvalue   11 init= -2.060     fin= -2.060     change= 0.1563E-03
eigenvalue   12 init= -1.342     fin= -1.342     change= 0.2703E-04
eigenvalue   13 init= -1.312     fin= -1.312     change= 0.9682E-04
eigenvalue   14 init= -.3035     fin= -.3037     change= 0.1554E-03
eigenvalue   15 init=  1.602     fin=  1.602     change= 0.1987E-05
eigenvalue   16 init=  1.832     fin=  1.832     change= 0.1955E-05
 Checking convergence criteria
 Diagonalising expanded subspace
 Copying updated data back
eigenvalue   17 init=  3.127     fin=  3.127     change= 0.9201E-05
 Checking convergence criteria
 Diagonalising expanded subspace
 Copying updated data back
eigenvalue   17 init=  3.127     fin=  3.127     change= 0.1725E-04
 Checking convergence criteria
 Diagonalising expanded subspace
 Copying updated data back
eigenvalue   17 init=  3.127     fin=  3.127     change= 0.2081E-04
 Checking convergence criteria
 Diagonalising expanded subspace
 Copying updated data back
eigenvalue   17 init=  3.127     fin=  3.127     change= 0.2250E-04
 Checking convergence criteria
 no. bands in each block=           8
Kinetic eigenvalue #   1 =     0.37872752E+02
Kinetic eigenvalue #   2 =     0.39259377E+02
Kinetic eigenvalue #   3 =     0.39828243E+02
Kinetic eigenvalue #   4 =     0.39828505E+02
Kinetic eigenvalue #   5 =     0.25173050E+02
Kinetic eigenvalue #   6 =     0.43723007E+02
Kinetic eigenvalue #   7 =     0.37749840E+02
Kinetic eigenvalue #   8 =     0.38728886E+02
Kinetic eigenvalue #   9 =     0.19304417E+02
Kinetic eigenvalue #  10 =     0.31832909E+02
Kinetic eigenvalue #  11 =     0.36757792E+02
Kinetic eigenvalue #  12 =     0.34455431E+02
Kinetic eigenvalue #  13 =     0.39782232E+02
Kinetic eigenvalue #  14 =     0.24529650E+02
Kinetic eigenvalue #  15 =     0.14893062E+02
Kinetic eigenvalue #  16 =     0.89240042E+01
Kinetic eigenvalue #  17 =     0.16012492E+02
 Calculating the R matrix for the precon Sinv operator
 Diagonalising expanded subspace
 Copying updated data back
eigenvalue    1 init= -80.00     fin= -80.00     change= 0.2638E-08
eigenvalue    2 init= -49.54     fin= -49.54     change= 0.1577E-07
eigenvalue    3 init= -49.09     fin= -49.09     change= 0.1455E-09
eigenvalue    4 init= -49.09     fin= -49.09     change= 0.1012E-09
eigenvalue    5 init= -19.79     fin= -19.79     change= 0.1995E-04
eigenvalue    6 init= -6.712     fin= -6.712     change= 0.9374E-04
eigenvalue    7 init= -5.968     fin= -5.968     change= 0.1255E-04
eigenvalue    8 init= -5.904     fin= -5.904     change= 0.7573E-05
 Checking convergence criteria
 Diagonalising expanded subspace
 Copying updated data back
eigenvalue    1 init= -80.00     fin= -80.00     change= 0.2678E-08
eigenvalue    2 init= -49.54     fin= -49.54     change= 0.1659E-07
eigenvalue    3 init= -49.09     fin= -49.09     change= 0.1463E-09
eigenvalue    4 init= -49.09     fin= -49.09     change= 0.1015E-09
eigenvalue    5 init= -19.79     fin= -19.79     change= 0.2109E-04
eigenvalue    6 init= -6.712     fin= -6.712     change= 0.1015E-03
eigenvalue    7 init= -5.968     fin= -5.968     change= 0.1335E-04
eigenvalue    8 init= -5.904     fin= -5.904     change= 0.7924E-05
 Checking convergence criteria
 Diagonalising expanded subspace
 Copying updated data back
eigenvalue    9 init= -2.620     fin= -2.620     change= 0.8569E-04
eigenvalue   10 init= -2.349     fin= -2.349     change= 0.7925E-04
eigenvalue   11 init= -2.289     fin= -2.289     change= 0.3942E-04
eigenvalue   12 init= -1.378     fin= -1.378     change= 0.5607E-04
eigenvalue   13 init= -1.202     fin= -1.202     change= 0.1830E-04
eigenvalue   14 init= -.5142     fin= -.5143     change= 0.1734E-03
eigenvalue   15 init=  1.204     fin=  1.204     change= 0.3235E-05
eigenvalue   16 init=  2.525     fin=  2.525     change= 0.3049E-04
 Checking convergence criteria
 Diagonalising expanded subspace
 Copying updated data back
eigenvalue    9 init= -2.620     fin= -2.620     change= 0.9354E-04
eigenvalue   10 init= -2.349     fin= -2.349     change= 0.8767E-04
eigenvalue   11 init= -2.289     fin= -2.289     change= 0.4143E-04
eigenvalue   12 init= -1.378     fin= -1.378     change= 0.6343E-04
eigenvalue   13 init= -1.202     fin= -1.202     change= 0.1972E-04
eigenvalue   14 init= -.5142     fin= -.5144     change= 0.1996E-03
eigenvalue   15 init=  1.204     fin=  1.204     change= 0.3976E-05
eigenvalue   16 init=  2.525     fin=  2.525     change= 0.4071E-04
 Checking convergence criteria
 Diagonalising expanded subspace
 Copying updated data back
eigenvalue    9 init= -2.620     fin= -2.620     change= 0.9389E-04
eigenvalue   10 init= -2.349     fin= -2.349     change= 0.8798E-04
eigenvalue   11 init= -2.289     fin= -2.289     change= 0.4143E-04
eigenvalue   12 init= -1.378     fin= -1.378     change= 0.6387E-04
eigenvalue   13 init= -1.202     fin= -1.202     change= 0.1973E-04
eigenvalue   14 init= -.5142     fin= -.5144     change= 0.2016E-03
eigenvalue   15 init=  1.204     fin=  1.204     change= 0.4006E-05
eigenvalue   16 init=  2.525     fin=  2.525     change= 0.4249E-04
 Checking convergence criteria
 Diagonalising expanded subspace
 Copying updated data back
eigenvalue   17 init=  4.237     fin=  4.237     change= 0.4990E-06
 Checking convergence criteria
(Entering electronic_find_fermi_fix)
Smearing occupancies with Gaussians
Spin: 1, Min eigenvalue: -8.4755E+001 eV, Max eigenvalue:  3.4379E+000 eV
Fermi energy for up electrons = -3.2274E+000 eV [lower bound; range =  1.96E-014 eV]
Spin: 2, Min eigenvalue: -8.0796E+001 eV, Max eigenvalue:  5.0368E+000 eV
Fermi energy for down electrons = -3.1830E+000 eV [lower bound; range =  1.91E-014 eV]
(Leaving electronic_find_fermi_fix)
NB material has an apparent band gap of  1.4126E+000eV for spin up electrons.
NB material has an apparent band gap of  3.2840E+000eV for spin down electrons.
Calculating KE and non-local eigenvalues to find total energy
 
End of SCF cycle energies
Exchange-correlation energy      =      -499.07913191541501874 eV
+Hartree energy                  =      2055.86480228865912068 eV
+Local pseudopotential energy    =     -5072.04198973965321784 eV
----------------------------------
Potential energy (total)         =     -3518.08364078715112555 eV
                                  
+Hubbard U energy                =        -1.91999999999999993 eV
+Kinetic energy                  =       777.23480795292516632 eV
+Non-local energy                =       154.60730262018486769 eV
+Electronic entropy term (-TS)   =        -0.00124110172679820 eV
+Ewald energy (const)            =      -774.85607651874397561 eV
+non-Coulombic energy (const)    =        13.80612138473854067 eV
----------------------------------
Total free energy (E-TS)         =     -3349.21272644977352684 eV
 
NB est. 0K energy (E-0.5TS)      =     -3349.21210589891052223 eV
 
(XC correction to eigenvalue sum =        44.01690523340165129 eV)
(Hubbard U correction to eigenvalu         0.00000003000000000 eV)
 
      1  -3.34921273E+003 -3.21047374E+000  -3.64469105E-002      15.60  <-- SCF
 Calculate new overlap and Hubbard U matrix
 Density matrix in cubic harmonics:
     1.0000     0.0000     0.0000     0.0000     0.0000
     0.0000     0.0000     0.0000     0.0000     0.0000
     0.0000     0.0000     0.0000     0.0000     0.0000
     0.0000     0.0000     0.0000     0.0000     0.0000
     0.0000     0.0000     0.0000     0.0000     0.0000
     0.0000     0.0000     0.0000     0.0000     0.0000
     0.0000     0.0000     0.0000     1.0000     0.0000
     0.0000     0.0000     0.0000     0.0000     0.0000
     0.0000     0.0000     0.0000     0.0000     1.0000
     0.0000     0.0000     0.0000     0.0000     0.0000
 Hermiticity:        (-4.44089209850062616E-016,0.0000000000000000)
 Density matrix in cubic harmonics:
     1.0000     0.0000     0.0000     0.0000     0.0000
     0.0000     0.0000     0.0000     0.0000     0.0000
     0.0000     0.0000     0.0000     0.0000     0.0000
     0.0000     0.0000     0.0000     0.0000     0.0000
     0.0000     0.0000     0.0000     0.0000     0.0000
     0.0000     0.0000     0.0000     0.0000     0.0000
     0.0000     0.0000     0.0000     1.0000     0.0000
     0.0000     0.0000     0.0000     0.0000     0.0000
     0.0000     0.0000     0.0000     0.0000     1.0000
     0.0000     0.0000     0.0000     0.0000     0.0000
 Hermiticity:        (-4.44089209850062616E-016,0.0000000000000000)
 Density matrix in cubic harmonics:
     0.9497    -0.0000     0.0000     0.0867     0.0000
     0.0000     0.0000     0.0000     0.0000     0.0000
    -0.0000     0.9997     0.0000     0.0000     0.0000
     0.0000     0.0000     0.0000     0.0000     0.0000
     0.0000     0.0000     0.9807    -0.0000     0.0000
     0.0000     0.0000     0.0000     0.0000     0.0000
     0.0867     0.0000    -0.0000     0.8495     0.0000
     0.0000     0.0000     0.0000     0.0000     0.0000
     0.0000     0.0000     0.0000     0.0000     0.9807
     0.0000     0.0000     0.0000     0.0000     0.0000
 Hermiticity:              (0.19865399346743851,0.0000000000000000)
 Density matrix in cubic harmonics:
     0.0918    -0.0000    -0.0000    -0.1589     0.0000
     0.0000     0.0000     0.0000     0.0000     0.0000
    -0.0000     0.0000     0.0000     0.0000    -0.0000
     0.0000     0.0000     0.0000     0.0000     0.0000
    -0.0000     0.0000     0.3481    -0.0000     0.0000
     0.0000     0.0000     0.0000     0.0000     0.0000
    -0.1589     0.0000    -0.0000     0.2753    -0.0000
     0.0000     0.0000     0.0000     0.0000     0.0000
     0.0000    -0.0000     0.0000    -0.0000     0.3481
     0.0000     0.0000     0.0000     0.0000     0.0000
 Hermiticity:              (0.68627171051371116,0.0000000000000000)
  Hubbard energy diff=   5.6409117248252129E-002 eV <-- Hubbard_U
  ----------- Hubbard U: New occupation matrix calculated: --------------------
  -1.8635908827517480      eV <= Edirect

     Hubbard U occupation numbers
     ----------------------------
Species   Ion   l  spin               occupancies
==================================================================
  Mn       1    2   up:   0.80  0.98  0.98  1.00  1.00
                    dn:   0.00  0.00  0.35  0.35  0.37
==================================================================

 Only the high frequencies of the density were mixed in this cycle 
Symmetrising density
Calculating local potential
Calculating Hubbard U potential
 Density matrix in cubic harmonics:
     1.0000     0.0000     0.0000     0.0000     0.0000
     0.0000     0.0000     0.0000     0.0000     0.0000
     0.0000     0.0000     0.0000     0.0000     0.0000
     0.0000     0.0000     0.0000     0.0000     0.0000
     0.0000     0.0000     0.0000     0.0000     0.0000
     0.0000     0.0000     0.0000     0.0000     0.0000
     0.0000     0.0000     0.0000     1.0000     0.0000
     0.0000     0.0000     0.0000     0.0000     0.0000
     0.0000     0.0000     0.0000     0.0000     1.0000
     0.0000     0.0000     0.0000     0.0000     0.0000
 Hermiticity:        (-4.44089209850062616E-016,0.0000000000000000)
 Density matrix in cubic harmonics:
     1.0000     0.0000     0.0000     0.0000     0.0000
     0.0000     0.0000     0.0000     0.0000     0.0000
     0.0000     0.0000     0.0000     0.0000     0.0000
     0.0000     0.0000     0.0000     0.0000     0.0000
     0.0000     0.0000     0.0000     0.0000     0.0000
     0.0000     0.0000     0.0000     0.0000     0.0000
     0.0000     0.0000     0.0000     1.0000     0.0000
     0.0000     0.0000     0.0000     0.0000     0.0000
     0.0000     0.0000     0.0000     0.0000     1.0000
     0.0000     0.0000     0.0000     0.0000     0.0000
 Hermiticity:        (-4.44089209850062616E-016,0.0000000000000000)
Calculating non-local weights
Starting SCF cycle     2 of up to    30
 no. bands in each block=           8
Kinetic eigenvalue #   1 =     0.38349113E+02
Kinetic eigenvalue #   2 =     0.39990489E+02
Kinetic eigenvalue #   3 =     0.39990490E+02
Kinetic eigenvalue #   4 =     0.39595056E+02
Kinetic eigenvalue #   5 =     0.25145888E+02
Kinetic eigenvalue #   6 =     0.41925531E+02
Kinetic eigenvalue #   7 =     0.37277797E+02
Kinetic eigenvalue #   8 =     0.37292626E+02
Kinetic eigenvalue #   9 =     0.37903676E+02
Kinetic eigenvalue #  10 =     0.37463965E+02
Kinetic eigenvalue #  11 =     0.24139327E+02
Kinetic eigenvalue #  12 =     0.38593892E+02
Kinetic eigenvalue #  13 =     0.38693053E+02
Kinetic eigenvalue #  14 =     0.24292846E+02
Kinetic eigenvalue #  15 =     0.13531932E+02
Kinetic eigenvalue #  16 =     0.14135339E+02
Kinetic eigenvalue #  17 =     0.76984722E+01
 Diagonalising expanded subspace
 Copying updated data back
eigenvalue    1 init= -83.96     fin= -83.96     change= 0.1356E-08
eigenvalue    2 init= -53.14     fin= -53.14     change= 0.1448E-10
eigenvalue    3 init= -53.14     fin= -53.14     change= 0.1440E-10
eigenvalue    4 init= -52.98     fin= -52.98     change= 0.3238E-10
eigenvalue    5 init= -20.26     fin= -20.26     change= 0.5766E-07
eigenvalue    6 init= -7.788     fin= -7.788     change= 0.7034E-06
eigenvalue    7 init= -7.434     fin= -7.434     change= 0.1471E-06
eigenvalue    8 init= -7.433     fin= -7.433     change= 0.1866E-06
 Checking convergence criteria
 Diagonalising expanded subspace
 Copying updated data back
eigenvalue    9 init= -6.168     fin= -6.168     change= 0.1687E-07
eigenvalue   10 init= -6.002     fin= -6.002     change= 0.1118E-07
eigenvalue   11 init= -4.313     fin= -4.313     change= 0.6590E-06
eigenvalue   12 init= -3.758     fin= -3.758     change= 0.8016E-07
eigenvalue   13 init= -3.730     fin= -3.730     change= 0.2268E-06
eigenvalue   14 init= -1.832     fin= -1.832     change= 0.1052E-05
eigenvalue   15 init= 0.2960     fin= 0.2960     change= 0.4065E-07
eigenvalue   16 init= 0.4258     fin= 0.4258     change= 0.5423E-07
 Checking convergence criteria
 Diagonalising expanded subspace
 Copying updated data back
eigenvalue    9 init= -6.168     fin= -6.168     change= 0.1687E-07
eigenvalue   10 init= -6.002     fin= -6.002     change= 0.1152E-07
eigenvalue   11 init= -4.313     fin= -4.313     change= 0.8625E-06
eigenvalue   12 init= -3.758     fin= -3.758     change= 0.8017E-07
eigenvalue   13 init= -3.730     fin= -3.730     change= 0.2757E-06
eigenvalue   14 init= -1.832     fin= -1.832     change= 0.1461E-05
eigenvalue   15 init= 0.2960     fin= 0.2960     change= 0.4475E-07
eigenvalue   16 init= 0.4258     fin= 0.4258     change= 0.5423E-07
 Checking convergence criteria
 Diagonalising expanded subspace
 Copying updated data back
eigenvalue   17 init=  2.638     fin=  2.638     change= 0.2462E-06
 Checking convergence criteria
 no. bands in each block=           8
Kinetic eigenvalue #   1 =     0.38349092E+02
Kinetic eigenvalue #   2 =     0.39990479E+02
Kinetic eigenvalue #   3 =     0.39990669E+02
Kinetic eigenvalue #   4 =     0.39595048E+02
Kinetic eigenvalue #   5 =     0.25133143E+02
Kinetic eigenvalue #   6 =     0.41852326E+02
Kinetic eigenvalue #   7 =     0.37223845E+02
Kinetic eigenvalue #   8 =     0.37647153E+02
Kinetic eigenvalue #   9 =     0.37488473E+02
Kinetic eigenvalue #  10 =     0.37729916E+02
Kinetic eigenvalue #  11 =     0.21028156E+02
Kinetic eigenvalue #  12 =     0.37830166E+02
Kinetic eigenvalue #  13 =     0.41368612E+02
Kinetic eigenvalue #  14 =     0.25181343E+02
Kinetic eigenvalue #  15 =     0.13385536E+02
Kinetic eigenvalue #  16 =     0.79853933E+01
Kinetic eigenvalue #  17 =     0.17068407E+02
 Diagonalising expanded subspace
 Copying updated data back
eigenvalue    1 init= -83.96     fin= -83.96     change= 0.1434E-08
eigenvalue    2 init= -53.14     fin= -53.14     change= 0.1412E-10
eigenvalue    3 init= -53.14     fin= -53.14     change= 0.1378E-10
eigenvalue    4 init= -52.98     fin= -52.98     change= 0.2776E-10
eigenvalue    5 init= -20.26     fin= -20.26     change= 0.4426E-07
eigenvalue    6 init= -7.793     fin= -7.793     change= 0.5206E-06
eigenvalue    7 init= -7.438     fin= -7.438     change= 0.1855E-06
eigenvalue    8 init= -7.404     fin= -7.404     change= 0.8067E-07
 Checking convergence criteria
 Diagonalising expanded subspace
 Copying updated data back
eigenvalue    9 init= -6.203     fin= -6.203     change= 0.3724E-07
eigenvalue   10 init= -5.982     fin= -5.982     change= 0.5538E-08
eigenvalue   11 init= -4.558     fin= -4.558     change= 0.2305E-06
eigenvalue   12 init= -3.777     fin= -3.777     change= 0.2302E-06
eigenvalue   13 init= -3.630     fin= -3.630     change= 0.6501E-07
eigenvalue   14 init= -2.031     fin= -2.031     change= 0.4320E-06
eigenvalue   15 init= -.7132E-01 fin= -.7132E-01 change= 0.3790E-07
eigenvalue   16 init=  2.019     fin=  2.019     change= 0.1391E-06
 Checking convergence criteria
 Diagonalising expanded subspace
 Copying updated data back
eigenvalue   17 init=  2.479     fin=  2.479     change= 0.4748E-07
 Checking convergence criteria
 no. bands in each block=           8
Kinetic eigenvalue #   1 =     0.38349101E+02
Kinetic eigenvalue #   2 =     0.39990479E+02
Kinetic eigenvalue #   3 =     0.39990669E+02
Kinetic eigenvalue #   4 =     0.39595048E+02
Kinetic eigenvalue #   5 =     0.25133156E+02
Kinetic eigenvalue #   6 =     0.41852390E+02
Kinetic eigenvalue #   7 =     0.37223868E+02
Kinetic eigenvalue #   8 =     0.37647176E+02
Kinetic eigenvalue #   9 =     0.37488502E+02
Kinetic eigenvalue #  10 =     0.37729916E+02
Kinetic eigenvalue #  11 =     0.21028110E+02
Kinetic eigenvalue #  12 =     0.37829940E+02
Kinetic eigenvalue #  13 =     0.41368576E+02
Kinetic eigenvalue #  14 =     0.25181263E+02
Kinetic eigenvalue #  15 =     0.13385434E+02
Kinetic eigenvalue #  16 =     0.79852770E+01
Kinetic eigenvalue #  17 =     0.17067230E+02
 Diagonalising expanded subspace
 Copying updated data back
eigenvalue    1 init= -83.96     fin= -83.96     change= 0.1363E-08
eigenvalue    2 init= -53.14     fin= -53.14     change= 0.1401E-10
eigenvalue    3 init= -53.14     fin= -53.14     change= 0.1379E-10
eigenvalue    4 init= -52.98     fin= -52.98     change= 0.2764E-10
eigenvalue    5 init= -20.26     fin= -20.26     change= 0.4244E-07
eigenvalue    6 init= -7.793     fin= -7.793     change= 0.4903E-06
eigenvalue    7 init= -7.438     fin= -7.438     change= 0.1896E-06
eigenvalue    8 init= -7.404     fin= -7.404     change= 0.8344E-07
 Checking convergence criteria
 Diagonalising expanded subspace
 Copying updated data back
eigenvalue    9 init= -6.203     fin= -6.203     change= 0.3620E-07
eigenvalue   10 init= -5.982     fin= -5.982     change= 0.5535E-08
eigenvalue   11 init= -4.558     fin= -4.558     change= 0.2124E-06
eigenvalue   12 init= -3.777     fin= -3.777     change= 0.2483E-06
eigenvalue   13 init= -3.630     fin= -3.630     change= 0.6998E-07
eigenvalue   14 init= -2.031     fin= -2.031     change= 0.3887E-06
eigenvalue   15 init= -.7132E-01 fin= -.7132E-01 change= 0.4659E-07
eigenvalue   16 init=  2.019     fin=  2.019     change= 0.1627E-06
 Checking convergence criteria
 Diagonalising expanded subspace
 Copying updated data back
eigenvalue   17 init=  2.479     fin=  2.479     change= 0.1306E-06
 Checking convergence criteria
 no. bands in each block=           8
Kinetic eigenvalue #   1 =     0.38349117E+02
Kinetic eigenvalue #   2 =     0.39990489E+02
Kinetic eigenvalue #   3 =     0.39990490E+02
Kinetic eigenvalue #   4 =     0.39595056E+02
Kinetic eigenvalue #   5 =     0.25145936E+02
Kinetic eigenvalue #   6 =     0.41925500E+02
Kinetic eigenvalue #   7 =     0.37277828E+02
Kinetic eigenvalue #   8 =     0.37292633E+02
Kinetic eigenvalue #   9 =     0.37903676E+02
Kinetic eigenvalue #  10 =     0.37463967E+02
Kinetic eigenvalue #  11 =     0.24139554E+02
Kinetic eigenvalue #  12 =     0.38593893E+02
Kinetic eigenvalue #  13 =     0.38693029E+02
Kinetic eigenvalue #  14 =     0.24293436E+02
Kinetic eigenvalue #  15 =     0.13531876E+02
Kinetic eigenvalue #  16 =     0.14135339E+02
Kinetic eigenvalue #  17 =     0.76981475E+01
 Diagonalising expanded subspace
 Copying updated data back
eigenvalue    1 init= -83.96     fin= -83.96     change= 0.1331E-08
eigenvalue    2 init= -53.14     fin= -53.14     change= 0.1440E-10
eigenvalue    3 init= -53.14     fin= -53.14     change= 0.1424E-10
eigenvalue    4 init= -52.98     fin= -52.98     change= 0.3149E-10
eigenvalue    5 init= -20.26     fin= -20.26     change= 0.5372E-07
eigenvalue    6 init= -7.788     fin= -7.788     change= 0.6042E-06
eigenvalue    7 init= -7.434     fin= -7.434     change= 0.1629E-06
eigenvalue    8 init= -7.433     fin= -7.433     change= 0.1886E-06
 Checking convergence criteria
 Diagonalising expanded subspace
 Copying updated data back
eigenvalue    9 init= -6.168     fin= -6.168     change= 0.1687E-07
[...]
Spin 1, kpoint ( 0.250000 -0.333333  0.333333 ) weight = 0.111111
+--------+-------------------+----------------+
|  Band  |   Eigenvalue      |    Occupancy   |                   <- occ
+--------+-------------------+----------------+                   <- occ
|     8  |   -.734914E+01    |   1.00000      |                   <- occ
|     9  |   -.596527E+01    |   1.00000      |                   <- occ
|    10  |   -.580292E+01    |   1.00000      |                   <- occ
|    11  |   -.422276E+01    |   1.00000      |                   <- occ
|    12  |   -.368425E+01    |  0.999945      |                   <- occ
|    13  |   -.365414E+01    |  0.999871      |                   <- occ
|    14  |   -.176079E+01    |   0.00000      |                   <- occ
|    15  |   0.332947E+00    |   0.00000      |                   <- occ
+--------+-------------------+----------------+                   <- occ
Spin 2, kpoint (-0.250000 -0.333333 -0.333333 ) weight = 0.111111
+--------+-------------------+----------------+
|  Band  |   Eigenvalue      |    Occupancy   |                   <- occ
+--------+-------------------+----------------+                   <- occ
|     8  |   -.592553E+01    |   1.00000      |                   <- occ
|     9  |   -.230208E+01    |  0.175056E-08  |                   <- occ
|    10  |   -.218475E+01    |  0.814970E-11  |                   <- occ
|    11  |   -.196292E+01    |   0.00000      |                   <- occ
|    12  |   -.121448E+01    |   0.00000      |                   <- occ
|    13  |   -.118263E+01    |   0.00000      |                   <- occ
|    14  |   -.228484E+00    |   0.00000      |                   <- occ
|    15  |   0.163904E+01    |   0.00000      |                   <- occ
+--------+-------------------+----------------+                   <- occ
Spin 2, kpoint (-0.250000  0.000000 -0.333333 ) weight = 0.111111
+--------+-------------------+----------------+
|  Band  |   Eigenvalue      |    Occupancy   |                   <- occ
+--------+-------------------+----------------+                   <- occ
|     8  |   -.587031E+01    |   1.00000      |                   <- occ
|     9  |   -.249328E+01    |  0.262910E-05  |                   <- occ
|    10  |   -.223027E+01    |  0.708734E-10  |                   <- occ
|    11  |   -.212267E+01    |  0.362044E-12  |                   <- occ
|    12  |   -.125203E+01    |   0.00000      |                   <- occ
|    13  |   -.106908E+01    |   0.00000      |                   <- occ
|    14  |   -.433401E+00    |   0.00000      |                   <- occ
|    15  |   0.124305E+01    |   0.00000      |                   <- occ
+--------+-------------------+----------------+                   <- occ
Spin 2, kpoint (-0.250000  0.000000  0.333333 ) weight = 0.111111
+--------+-------------------+----------------+
|  Band  |   Eigenvalue      |    Occupancy   |                   <- occ
+--------+-------------------+----------------+                   <- occ
|     8  |   -.587031E+01    |   1.00000      |                   <- occ
|     9  |   -.249328E+01    |  0.262910E-05  |                   <- occ
|    10  |   -.223027E+01    |  0.708733E-10  |                   <- occ
|    11  |   -.212267E+01    |  0.362044E-12  |                   <- occ
|    12  |   -.125203E+01    |   0.00000      |                   <- occ
|    13  |   -.106908E+01    |   0.00000      |                   <- occ
|    14  |   -.433401E+00    |   0.00000      |                   <- occ
|    15  |   0.124305E+01    |   0.00000      |                   <- occ
+--------+-------------------+----------------+                   <- occ
Spin 2, kpoint (-0.250000  0.333333  0.333333 ) weight = 0.111111
+--------+-------------------+----------------+
|  Band  |   Eigenvalue      |    Occupancy   |                   <- occ
+--------+-------------------+----------------+                   <- occ
|     8  |   -.592553E+01    |   1.00000      |                   <- occ
|     9  |   -.230208E+01    |  0.175056E-08  |                   <- occ
|    10  |   -.218475E+01    |  0.814970E-11  |                   <- occ
|    11  |   -.196292E+01    |   0.00000      |                   <- occ
|    12  |   -.121448E+01    |   0.00000      |                   <- occ
|    13  |   -.118263E+01    |   0.00000      |                   <- occ
|    14  |   -.228484E+00    |   0.00000      |                   <- occ
|    15  |   0.163904E+01    |   0.00000      |                   <- occ
+--------+-------------------+----------------+                   <- occ
Spin 2, kpoint ( 0.250000  0.333333  0.000000 ) weight = 0.111111
+--------+-------------------+----------------+
|  Band  |   Eigenvalue      |    Occupancy   |                   <- occ
+--------+-------------------+----------------+                   <- occ
|     8  |   -.587031E+01    |   1.00000      |                   <- occ
|     9  |   -.249328E+01    |  0.262913E-05  |                   <- occ
|    10  |   -.223027E+01    |  0.708725E-10  |                   <- occ
|    11  |   -.212267E+01    |  0.362044E-12  |                   <- occ
|    12  |   -.125203E+01    |   0.00000      |                   <- occ
|    13  |   -.106908E+01    |   0.00000      |                   <- occ
|    14  |   -.433401E+00    |   0.00000      |                   <- occ
|    15  |   0.124305E+01    |   0.00000      |                   <- occ
+--------+-------------------+----------------+                   <- occ
Spin 2, kpoint (-0.250000 -0.333333  0.333333 ) weight = 0.111111
+--------+-------------------+----------------+
|  Band  |   Eigenvalue      |    Occupancy   |                   <- occ
+--------+-------------------+----------------+                   <- occ
|     8  |   -.592553E+01    |   1.00000      |                   <- occ
|     9  |   -.230208E+01    |  0.175055E-08  |                   <- occ
|    10  |   -.218475E+01    |  0.814965E-11  |                   <- occ
|    11  |   -.196292E+01    |   0.00000      |                   <- occ
|    12  |   -.121448E+01    |   0.00000      |                   <- occ
|    13  |   -.118263E+01    |   0.00000      |                   <- occ
|    14  |   -.228484E+00    |   0.00000      |                   <- occ
|    15  |   0.163904E+01    |   0.00000      |                   <- occ
+--------+-------------------+----------------+                   <- occ
Spin 2, kpoint (-0.250000  0.000000  0.000000 ) weight = 0.111111
+--------+-------------------+----------------+
|  Band  |   Eigenvalue      |    Occupancy   |                   <- occ
+--------+-------------------+----------------+                   <- occ
|     8  |   -.587455E+01    |   1.00000      |                   <- occ
|     9  |   -.280134E+01    |  0.875213E-02  |                   <- occ
|    10  |   -.242241E+01    |  0.214789E-06  |                   <- occ
|    11  |   -.209035E+01    |  0.663913E-13  |                   <- occ
|    12  |   -.108238E+01    |   0.00000      |                   <- occ
|    13  |   -.108238E+01    |   0.00000      |                   <- occ
|    14  |   -.642983E+00    |   0.00000      |                   <- occ
|    15  |   0.190758E+01    |   0.00000      |                   <- occ
+--------+-------------------+----------------+                   <- occ
Spin 2, kpoint (-0.250000  0.333333  0.000000 ) weight = 0.111111
+--------+-------------------+----------------+
|  Band  |   Eigenvalue      |    Occupancy   |                   <- occ
+--------+-------------------+----------------+                   <- occ
|     8  |   -.587031E+01    |   1.00000      |                   <- occ
|     9  |   -.249328E+01    |  0.262913E-05  |                   <- occ
|    10  |   -.223027E+01    |  0.708724E-10  |                   <- occ
|    11  |   -.212267E+01    |  0.362044E-12  |                   <- occ
|    12  |   -.125203E+01    |   0.00000      |                   <- occ
|    13  |   -.106908E+01    |   0.00000      |                   <- occ
|    14  |   -.433401E+00    |   0.00000      |                   <- occ
|    15  |   0.124305E+01    |   0.00000      |                   <- occ
+--------+-------------------+----------------+                   <- occ
Spin 2, kpoint ( 0.250000 -0.333333  0.333333 ) weight = 0.111111
+--------+-------------------+----------------+
|  Band  |   Eigenvalue      |    Occupancy   |                   <- occ
+--------+-------------------+----------------+                   <- occ
|     8  |   -.592553E+01    |   1.00000      |                   <- occ
|     9  |   -.230208E+01    |  0.175055E-08  |                   <- occ
|    10  |   -.218475E+01    |  0.814965E-11  |                   <- occ
|    11  |   -.196292E+01    |   0.00000      |                   <- occ
|    12  |   -.121448E+01    |   0.00000      |                   <- occ
|    13  |   -.118263E+01    |   0.00000      |                   <- occ
|    14  |   -.228484E+00    |   0.00000      |                   <- occ
|    15  |   0.163904E+01    |   0.00000      |                   <- occ
+--------+-------------------+----------------+                   <- occ
  achieved Hubbard U energy convergence:   1.8729068167189222E-006
Have a nice day.

Writing analysis data to MnO.castep_bin

Writing model to MnO.check
                            Ewald force:
Species #   1 Atom #   1 Fx: 483.919     Fy:0.185030E-13 Fz:0.185420E-13 eV/A
Species #   2 Atom #   1 Fx:-483.919     Fy:-.184017E-13 Fz:-.185483E-13 eV/A

 Pseudo atomic calculation performed for O 2s2 2p4

 Converged in 24 iterations to a total energy of -431.0932 eV

 Pseudo atomic calculation performed for Mn 3s2 3p6 3d5 4s2

 Converged in 38 iterations to a total energy of -2902.3718 eV
  Accepting available Hubbard U occ matrix: 

     Hubbard U occupation numbers
     ----------------------------
Species   Ion   l  spin               occupancies
==================================================================
  Mn       1    2   up:   0.79  0.98  0.98  1.00  1.00
                    dn:  -0.00  0.00  0.33  0.33  0.36
==================================================================

 Density matrix in cubic harmonics:
     0.9464    -0.0000    -0.0000     0.0924     0.0000
     0.0000     0.0000     0.0000     0.0000     0.0000
    -0.0000     0.9995     0.0000     0.0000    -0.0000
     0.0000     0.0000     0.0000     0.0000     0.0000
    -0.0000     0.0000     0.9795     0.0000    -0.0000
     0.0000     0.0000     0.0000     0.0000     0.0000
     0.0924     0.0000     0.0000     0.8397    -0.0000
     0.0000     0.0000     0.0000     0.0000     0.0000
     0.0000    -0.0000    -0.0000    -0.0000     0.9795
     0.0000     0.0000     0.0000     0.0000     0.0000
 Hermiticity:              (0.20885827746338903,0.0000000000000000)
 Density matrix in cubic harmonics:
     0.0891    -0.0000    -0.0000    -0.1541     0.0000
     0.0000     0.0000     0.0000     0.0000     0.0000
    -0.0000     0.0000    -0.0000     0.0000    -0.0000
     0.0000     0.0000     0.0000     0.0000     0.0000
    -0.0000    -0.0000     0.3323     0.0000    -0.0000
     0.0000     0.0000     0.0000     0.0000     0.0000
    -0.1541     0.0000     0.0000     0.2670     0.0000
     0.0000     0.0000     0.0000     0.0000     0.0000
     0.0000    -0.0000    -0.0000     0.0000     0.3323
     0.0000     0.0000     0.0000     0.0000     0.0000
 Hermiticity:              (0.67310828789812072,0.0000000000000000)
Hubbard U energy: Ha   =   -0.067799477210
Hubbard U forces Ha/A    1     7.747877115931    4.724315314592    4.724315314592    0.000000000001    0.000000000000   -0.000000000000
Hubbard U forces Ha/A    2     4.724315314592    4.724315314592    4.724315314592   -0.000000000040   -0.000000000000   -0.000000000000
  achieved Hubbard U energy convergence:   7.3498644949913272E-007

 *********************** Ewald forces ***********************
 *                                                          *
 *               Cartesian components (eV/A)                *
 * -------------------------------------------------------- *
 *                         x            y            z      *
 *                                                          *
 * O               1    483.91934      0.00000      0.00000 *
 * Mn              1   -483.91934     -0.00000     -0.00000 *
 *                                                          *
 ************************************************************

 ****************** Local potential forces ******************
 *                                                          *
 *               Cartesian components (eV/A)                *
 * -------------------------------------------------------- *
 *                         x            y            z      *
 *                                                          *
 * O               1   -453.47568     -0.00000     -0.00000 *
 * Mn              1    495.90995     -0.00000      0.00000 *
 *                                                          *
 ************************************************************

 **************** Non-local potential forces ****************
 *                                                          *
 *               Cartesian components (eV/A)                *
 * -------------------------------------------------------- *
 *                         x            y            z      *
 *                                                          *
 * O               1    -30.44520      0.00000     -0.00000 *
 * Mn              1    -13.43946     -0.00000     -0.00000 *
 *                                                          *
 ************************************************************

 ************** External Efield and/or dipole ***************
 *                                                          *
 *               Cartesian components (eV/A)                *
 * -------------------------------------------------------- *
 *                         x            y            z      *
 *                                                          *
 * O               1      0.00000      0.00000      0.00000 *
 * Mn              1      0.00000      0.00000      0.00000 *
 *                                                          *
 ************************************************************

 ***************** DM correction to forces ******************
 *                                                          *
 *               Cartesian components (eV/A)                *
 * -------------------------------------------------------- *
 *                         x            y            z      *
 *                                                          *
 * O               1      0.00000      0.00000      0.00000 *
 * Mn              1      0.00000      0.00000      0.00000 *
 *                                                          *
 ************************************************************

 ***************** Hubbard potential forces *****************
 *                                                          *
 *               Cartesian components (eV/A)                *
 * -------------------------------------------------------- *
 *                         x            y            z      *
 *                                                          *
 * O               1      0.00000      0.00000     -0.00000 *
 * Mn              1     -0.00000     -0.00000     -0.00000 *
 *                                                          *
 ************************************************************

 ************************** Forces **************************
 *                                                          *
 *               Cartesian components (eV/A)                *
 * -------------------------------------------------------- *
 *                         x            y            z      *
 *                                                          *
 * O               1      0.72366      0.00000     -0.00000 *
 * Mn              1     -0.72366     -0.00000      0.00000 *
 *                                                          *
 ************************************************************

 Pseudo atomic calculation performed for O 2s2 2p4

 Converged in 24 iterations to a total energy of -431.0932 eV

 Pseudo atomic calculation performed for Mn 3s2 3p6 3d5 4s2

 Converged in 38 iterations to a total energy of -2902.3718 eV
Charge spilling parameter for spin component 1 = 0.18%
Charge spilling parameter for spin component 2 = 0.19%

                   Orbital Populations                  
  ---------------------------------------------------------------
     Ion    Atom   Orbital              Up        Down      Spin
  ---------------------------------------------------------------
      O     1      S                    0.963     0.959     0.004
      O     1      Px                   0.679     0.730    -0.052
      O     1      Py                   0.905     0.716     0.189
      O     1      Pz                   0.905     0.716     0.189
     Mn     1      S                    0.999     1.000    -0.001
     Mn     1      Px                   0.998     0.998     0.000
     Mn     1      Py                   1.000     1.000     0.000
     Mn     1      Pz                   1.000     1.000     0.000
     Mn     1      Dzz                  0.929     0.068     0.861
     Mn     1      Dzy                  1.000     0.000     1.000
     Mn     1      Dzx                  0.972     0.264     0.708
     Mn     1      Dxx-yy               0.788     0.204     0.584
     Mn     1      Dxy                  0.972     0.264     0.708
     Mn     1      S                    0.599     0.019     0.580
     Mn     1      Px                   0.036     0.022     0.014
     Mn     1      Py                   0.127     0.020     0.107
     Mn     1      Pz                   0.127     0.020     0.107
  ---------------------------------------------------------------
                           Total:      12.999     8.001     4.998
  ---------------------------------------------------------------
The total projected populations are: spin up   12.999   0.000, spin down    8.001   0.000, total   21.000   0.000

     Atomic Populations (Mulliken)
     -----------------------------
Species          Ion Spin      s      p      d      f     Total  Charge(e)   Spin(hbar/2)
=========================================================================================
  O               1   up:     0.96   2.49   0.00   0.00   3.45    -0.57        0.33
                  1   dn:     0.96   2.16   0.00   0.00   3.12
  Mn              1   up:     1.60   3.29   4.66   0.00   9.55     0.57        4.67
                  1   dn:     1.02   3.06   0.80   0.00   4.88
=========================================================================================

                 Bond                   Population        Spin       Length (A)
================================================================================
               O 1 -- Mn 1                   0.64        -0.04          1.60000
================================================================================


Writing analysis data to MnO.castep_bin

Writing model to MnO.check
Initialisation time =     13.31 s
Calculation time    =     16.95 s
Finalisation time   =      0.13 s
Total time          =     30.38 s
Peak Memory Use     = 519296 kB
  
Overall parallel efficiency rating: Good (77%)                                  
  
Data was distributed by:-
k-point (2-way); efficiency rating: Good (78%)                                  
  
Parallel notes:
1) Calculation only took 30.3 s, so efficiency estimates may be inaccurate.     
2) k-points were not fully distributed, there were 5 k-points per process.      
  
Efficiencies are estimated from the ratio of communication time to total time,
and do not include all the effects of serial operations or load imbalance.
