 +-------------------------------------------------+
 |                                                 |
 |      CCC   AA    SSS  TTTTT  EEEEE  PPPP        |
 |     C     A  A  S       T    E      P   P       |
 |     C     AAAA   SS     T    EEE    PPPP        |
 |     C     A  A     S    T    E      P           |
 |      CCC  A  A  SSS     T    EEEEE  P           |
 |                                                 |
 +-------------------------------------------------+
 |                                                 |
 | Welcome to Academic Release CASTEP version 19.11|          
 | Ab Initio Total Energy Program                  |
 |                                                 |
 | Authors:                                        |
 | M. Segall, M. Probert, C. Pickard, P. Hasnip,   |
 | S. Clark, K. Refson, J. R. Yates, M. Payne      |
 |                                                 |
 | Contributors:                                   |
 | P. Lindan, P. Haynes, J. White, V. Milman,      |
 | N. Govind, M. Gibson, P. Tulip, V. Cocula,      |
 | B. Montanari, D. Quigley, M. Glover,            |
 | L. Bernasconi, A. Perlov, M. Plummer,           |
 | E. McNellis, J. Meyer, J. Gale, D. Jochym       |
 | J. Aarons, B. Walker, R. Gillen, D. Jones       |
 | T. Green, I. J. Bush, C. J. Armstrong,          |
 | E. J. Higgins, E. L. Brown, M. S. McFly,        |
 | J. Wilkins, B-C. Shih, P. J. P. Byrne           |
 |                                                 |
 | Copyright (c) 2000 - 2018                       |
 |                                                 |
 |     Distributed under the terms of an           |
 |     Agreement between the United Kingdom        |
 |     Car-Parrinello (UKCP) Consortium,           |
 |     Daresbury Laboratory and Accelrys, Inc.     |
 |                                                 |
 | Please cite                                     |
 |                                                 |
 |     "First principles methods using CASTEP"     |
 |                                                 |
 |         Zeitschrift fuer Kristallographie       |
 |           220(5-6) pp. 567-570 (2005)           |
 |                                                 |
 | S. J. Clark, M. D. Segall, C. J. Pickard,       |
 | P. J. Hasnip, M. J. Probert, K. Refson,         |
 | M. C. Payne                                     |
 |                                                 |
 |       in all publications arising from          |
 |              your use of CASTEP                 |
 |                                                 |
 +-------------------------------------------------+
 |                                                 |
 |              http://www.castep.org              |
 |                                                 |
 +-------------------------------------------------+



 Compiled for linux_x86_64_gfortran7.0 on Mon, 30 Mar 2020 12:17:21 +0100
 from code version e1fe0d666396+ Castep191_branch Thu, 24 Oct 2019 13:54:03 +0100
 Compiler: GNU Fortran 7.5.0; Optimisation: fast
 MATHLIBS: Intel MKL(2019.0.5) (LAPACK version 3.7.0)
 FFT Lib : mkl
 Fundamental constants values: CODATA 2014

 Run started: Wed, 04 Nov 2020 19:29:02 +0000

 ******************************* User Parameters *******************************
iprint              : 3          # verbosity control (I)
reuse               : base.check # reuse filename (S)
writebib            : F          # output BibTeX references (L)
writeotfg           : F          # output OTFG files (L)
writecstesp         : F          # output cst_esp file (L)
spin                : 5.0000000  # net spin (R)
spinpolarised       : T          # spin polarised (L)
%block develcode    :            # developers code (B)
iprintu=8,
%endblock develcode :            # developers code (B)

 *******************************************************************************
  

 Atomic calculation performed for O: 1s2 2s2 2p4

 Converged in 60 iterations to an ae energy of -2027.926 eV


 Atomic calculation performed for Mn: 1s2 2s2 2p6 3s2 3p6 3d5 4s2

 Converged in 96 iterations to an ae energy of -31460.102 eV


 Pseudo atomic calculation performed for O 2s2 2p4

 Converged in 24 iterations to a total energy of -431.0932 eV

 Pseudo atomic calculation performed for Mn 3s2 3p6 3d5 4s2

 Converged in 38 iterations to a total energy of -2902.3718 eV
Initialising basis set.

Standard grid dimensions:  48  36  36
Fine grid dimensions:      48  36  36

Plane wave load balancing: max   5869 min   5847 average   5864
True cut-off energy of basis :  22.996
 Reusing data from model file base.check
 Number of symmetry ops  =           1

 ******************************* User Parameters *******************************
iprint              : 3          # verbosity control (I)
reuse               : base.check # reuse filename (S)
writebib            : F          # output BibTeX references (L)
writeotfg           : F          # output OTFG files (L)
writecstesp         : F          # output cst_esp file (L)
spin                : 5.0000000  # net spin (R)
spinpolarised       : T          # spin polarised (L)
%block develcode    :            # developers code (B)
iprintu=8,
%endblock develcode :            # developers code (B)

 *******************************************************************************
  

 Atomic calculation performed for O: 1s2 2s2 2p4

 Converged in 60 iterations to an ae energy of -2027.926 eV


 Atomic calculation performed for Mn: 1s2 2s2 2p6 3s2 3p6 3d5 4s2

 Converged in 96 iterations to an ae energy of -31460.102 eV


 Pseudo atomic calculation performed for O 2s2 2p4

 Converged in 24 iterations to a total energy of -431.0932 eV

 Pseudo atomic calculation performed for Mn 3s2 3p6 3d5 4s2

 Converged in 38 iterations to a total energy of -2902.3718 eV
Initialising basis set.

Standard grid dimensions:  48  36  36
Fine grid dimensions:      48  36  36

Plane wave load balancing: max   5869 min   5847 average   5864
True cut-off energy of basis :  22.996
K-point set unchanged, read in wavefunction.
Reusing density from model file.
 Calculation parallelised over 2 processes.
 Data is distributed by k-point(2-way)

 ************************************ Title ************************************
 

 ***************************** General Parameters ******************************
  
 output verbosity                               : extreme (3)
 reusing                                        : base.check
 write checkpoint data to                       : MnO.check
 type of calculation                            : single point energy
 stress calculation                             : off
 density difference calculation                 : off
 electron localisation func (ELF) calculation   : off
 Hirshfeld analysis                             : off
 unlimited duration calculation
 timing information                             : on
 memory usage estimate                          : on
 write extra output files                       : on
 write final potential to formatted file        : off
 write final density to formatted file          : off
 write BibTeX reference list                    : off
 write OTFG pseudopotential files               : off
 write electrostatic potential file             : off
 write bands file                               : on
 checkpoint writing                             : both castep_bin and check files
  
 output         length unit                     : A
 output           mass unit                     : amu
 output           time unit                     : ps
 output         charge unit                     : e
 output           spin unit                     : hbar/2
 output         energy unit                     : eV
 output          force unit                     : eV/A
 output       velocity unit                     : A/ps
 output       pressure unit                     : GPa
 output     inv_length unit                     : 1/A
 output      frequency unit                     : cm-1
 output force constant unit                     : eV/A**2
 output         volume unit                     : A**3
 output   IR intensity unit                     : (D/A)**2/amu
 output         dipole unit                     : D
 output         efield unit                     : eV/A/e
 output        entropy unit                     : J/mol/K
  
 wavefunctions paging                           : none
 random number generator seed                   : randomised (192908749)
 data distribution                              : optimal for this architecture
 optimization strategy                          : balance speed and memory

 *********************** Exchange-Correlation Parameters ***********************
  
 using functional                               : Local Density Approximation
 relativistic treatment                         : Koelling-Harmon
 DFT+D: Semi-empirical dispersion correction    : off

 ************************* Pseudopotential Parameters **************************
  
 pseudopotential representation                 : reciprocal space
 <beta|phi> representation                      : reciprocal space
 spin-orbit coupling                            : off

 **************************** Basis Set Parameters *****************************
  
 basis set accuracy                             : FINE
 plane wave basis set cut-off                   :   625.8619   eV
 size of standard grid                          :     1.7500
 size of   fine   gmax                          :    22.4293   1/A
 largest prime factor in FFT                    :          5
 finite basis set correction                    : none

 **************************** Electronic Parameters ****************************
  
 number of  electrons                           :  21.00    
 net charge of system                           :  0.000    
 net spin   of system                           :  5.000    
 number of  up  spins                           :  13.00    
 number of down spins                           :  8.000    
 treating system as spin-polarized
 number of bands                                :         17

 ********************* Electronic Minimization Parameters **********************
  
 Method: Treating system as metallic with density mixing treatment of electrons,
         and number of  SD  steps               :          1
         and number of  CG  steps               :          4
  
 total energy / atom convergence tol.           : 0.1000E-04   eV
 eigen-energy convergence tolerance             : 0.1000E-05   eV
 max force / atom convergence tol.              : ignored
 convergence tolerance window                   :          3   cycles
 max. number of SCF cycles                      :         30
 number of fixed-spin iterations                :         10
 smearing scheme                                : Gaussian
 smearing width                                 : 0.2000       eV
 Fermi energy convergence tolerance             : 0.2721E-13   eV
 periodic dipole correction                     : NONE

 ************************** Density Mixing Parameters **************************
  
 density-mixing scheme                          : Broyden
 max. length of mixing history                  :         20
 charge density mixing amplitude                : 0.8000    
   spin density mixing amplitude                :  2.000    
 charge density mixing g-vector                 :  1.500       1/A
   spin density mixing g-vector                 :  1.500       1/A

 *********************** Population Analysis Parameters ************************
  
 Population analysis with cutoff                :  3.000       A
 Population analysis output                     : summary and pdos components

 ******************************* Developer Code ********************************
  
 iprintu=8,

 *******************************************************************************
  

                           -------------------------------
                                      Unit Cell
                           -------------------------------
        Real Lattice(A)                      Reciprocal Lattice(1/A)
     6.6000000     0.0000000     0.0000000        0.951997774   0.000000000   0.000000000
     0.0000000     5.0000000     0.0000000        0.000000000   1.256637061   0.000000000
     0.0000000     0.0000000     5.0000000        0.000000000   0.000000000   1.256637061

                       Lattice parameters(A)       Cell Angles
                    a =      6.600000          alpha =   90.000000
                    b =      5.000000          beta  =   90.000000
                    c =      5.000000          gamma =   90.000000

                       Current cell volume =           165.000000       A**3
                                   density =             0.429924   AMU/A**3
                                           =             0.713905     g/cm^3

                           -------------------------------
                                     Cell Contents
                           -------------------------------
                         Total number of ions in cell =    2
                      Total number of species in cell =    2
                        Max number of any one species =    1

            xxxxxxxxxxxxxxxxxxxxxxxxxxxxxxxxxxxxxxxxxxxxxxxxxxxxxxxxxxxx
            x  Element    Atom        Fractional coordinates of atoms  x
            x            Number           u          v          w      x
            x----------------------------------------------------------x
            x  O            1         0.621212   0.500000   0.500000   x 
            x  Mn           1         0.378788   0.500000   0.500000   x 
            xxxxxxxxxxxxxxxxxxxxxxxxxxxxxxxxxxxxxxxxxxxxxxxxxxxxxxxxxxxx


                         No user defined ionic velocities

                           -------------------------------
                                   Details of Species
                           -------------------------------

                               Mass of species in AMU
                                    O   15.9994000
                                    Mn   54.9380500

                          Electric Quadrupole Moment (Barn)
                                    O   -0.0255800 Isotope 17
                                    Mn    0.3300000 Isotope 55


         Quantisation axis:    0.00000   0.00000   1.00000

         Units for Hubbard U values are eV
         xxxxxxxxxxxxxxxxxxxxxxxxxxxxxxxxxxxxxxxxxxxxxxxxxxxxxxxxxxxxxxxxxxxx
         |  Element     Atom     Hubbard U   values by orbital type         |
         |             Number      s          p          d          f       |
         |------------------------------------------------------------------|
         |O             1         0.00000    0.00000    0.00000    0.00000  |
         |Mn            1         0.00000    0.00000    0.00000    0.00000  |
         xxxxxxxxxxxxxxxxxxxxxxxxxxxxxxxxxxxxxxxxxxxxxxxxxxxxxxxxxxxxxxxxxxxx


                          Files used for pseudopotentials:
                                    O 2|1.1|17|20|23|20:21(qc=8)
                                    Mn 3|1.8|1.8|0.6|12|14|16|30U:40:31:32(qc=7)

                           -------------------------------
                              k-Points For BZ Sampling
                           -------------------------------
                       MP grid size for SCF calculation is  2  3  3
                            with an offset of   0.000  0.000  0.000
                       Number of kpoints used =             9

             +++++++++++++++++++++++++++++++++++++++++++++++++++++++
             +  Number       Fractional coordinates        Weight  +
             +-----------------------------------------------------+
             +     1  -0.250000  -0.333333  -0.333333   0.1111111  +
             +     2  -0.250000  -0.333333   0.333333   0.1111111  +
             +     3  -0.250000   0.000000  -0.333333   0.1111111  +
             +     4  -0.250000   0.000000   0.000000   0.1111111  +
             +     5  -0.250000   0.000000   0.333333   0.1111111  +
             +     6  -0.250000   0.333333   0.000000   0.1111111  +
             +     7  -0.250000   0.333333   0.333333   0.1111111  +
             +     8   0.250000  -0.333333   0.333333   0.1111111  +
             +     9   0.250000   0.333333   0.000000   0.1111111  +
             +++++++++++++++++++++++++++++++++++++++++++++++++++++++

                           -------------------------------
                               Symmetry and Constraints
                           -------------------------------

                      Maximum deviation from symmetry =  0.00000         ANG

                      Number of symmetry operations   =           1
                      Number of ionic constraints     =           3
                      Point group of crystal =     1: C1, 1, 1
                      Space group of crystal =    99: P4mm, P 4 -2

                    1 rotation    
                 (   1.00000000000   0.00000000000   0.00000000000 )
                 (   0.00000000000   1.00000000000   0.00000000000 )
                 (   0.00000000000   0.00000000000   1.00000000000 )
                    1 displacement
                 (   0.00000000000   0.00000000000   0.00000000000 )
                      symmetry related atoms: 
             O:    1
             Mn:    1


                         Centre of mass is constrained

            xxxxxxxxxxxxxxxxxxxxxxxxxxxxxxxxxxxxxxxxxxxxxxxxxxxxxxxxxxxxxx....
            x  Species       atom   co-ordinate  constraints.....         
            x-------------------------------------------------------------....
            x O                 1       x        29165.1220      0.0000      0.0000
            x O                 1       y            0.0000  29165.1220      0.0000
            x O                 1       z            0.0000      0.0000  29165.1220
            x Mn                1       x       100145.9388      0.0000      0.0000
            x Mn                1       y            0.0000 100145.9388      0.0000
            x Mn                1       z            0.0000      0.0000 100145.9388
            xxxxxxxxxxxxxxxxxxxxxxxxxxxxxxxxxxxxxxxxxxxxxxxxxxxxxxxxxxxxxx....

                         Number of cell constraints= 0
                         Cell constraints are:  1 2 3 4 5 6

                         External pressure/stress (GPa)
                          0.00000   0.00000   0.00000
                                    0.00000   0.00000
                                              0.00000
Density mixing plane wave load balancing: max      0 min      0 average      0
  
+---------------- MEMORY AND SCRATCH DISK ESTIMATES PER PROCESS --------------+
|                                                     Memory          Disk    |
| Baseline code, static data and system overhead      354.0 MB         0.0 MB |
| BLAS internal memory storage                          0.0 MB         0.0 MB |
| Model and support data                               67.2 MB       110.4 MB |
| Electronic energy minimisation requirements          51.6 MB         0.0 MB |
| Force calculation requirements                       13.8 MB         0.0 MB |
|                                               ----------------------------- |
| Approx. total storage required per process          472.8 MB       110.4 MB |
|                                                                             |
| Requirements will fluctuate during execution and may exceed these estimates |
+-----------------------------------------------------------------------------+
Calculating total energy with cut-off of  625.862 eV.
electronic_minimisation: Initialising

 Pseudo atomic calculation performed for O 2s2 2p4

 Converged in 24 iterations to a total energy of -431.0932 eV

 Pseudo atomic calculation performed for Mn 3s2 3p6 3d5 4s2

 Converged in 38 iterations to a total energy of -2902.3718 eV
  Initializing Hubbard U occ matrix: 

     Hubbard U occupation numbers
     ----------------------------
Species   Ion   l  spin               occupancies
==================================================================
  Mn       1    2   up:   0.00  0.00  1.00  1.00  1.00
                    dn:   0.00  0.00  1.00  1.00  1.00
==================================================================

electronic_minimisation: Initialising density mixing
 Initialising mixing density basis set.
Density mixing plane wave load balancing: max   5871 min   5871 average   5871
Calculating Ewald energy for ionic configuration
              Ewald: real-space energy =     359.826811 eV
        Ewald: reciprocal-space energy =      93.920754 eV
         Ewald: (sum_charge)**2 Energy =     459.468501 eV
         Ewald: (sum_charge**2) Energy =     769.135141 eV
                          Ewald Energy =    -774.856077 eV
Calculating non-Coulombic energy for ionic configuration
Symmetrising density
Calculating local potential
Calculating Hubbard U potential
 Density matrix in cubic harmonics:
     1.0000     0.0000     0.0000     0.0000     0.0000
     0.0000     0.0000     0.0000     0.0000     0.0000
     0.0000     0.0000     0.0000     0.0000     0.0000
     0.0000     0.0000     0.0000     0.0000     0.0000
     0.0000     0.0000     0.0000     0.0000     0.0000
     0.0000     0.0000     0.0000     0.0000     0.0000
     0.0000     0.0000     0.0000     1.0000     0.0000
     0.0000     0.0000     0.0000     0.0000     0.0000
     0.0000     0.0000     0.0000     0.0000     1.0000
     0.0000     0.0000     0.0000     0.0000     0.0000
 Hermiticity:        (-4.44089209850062616E-016,0.0000000000000000)
 Density matrix in cubic harmonics:
     1.0000     0.0000     0.0000     0.0000     0.0000
     0.0000     0.0000     0.0000     0.0000     0.0000
     0.0000     0.0000     0.0000     0.0000     0.0000
     0.0000     0.0000     0.0000     0.0000     0.0000
     0.0000     0.0000     0.0000     0.0000     0.0000
     0.0000     0.0000     0.0000     0.0000     0.0000
     0.0000     0.0000     0.0000     1.0000     0.0000
     0.0000     0.0000     0.0000     0.0000     0.0000
     0.0000     0.0000     0.0000     0.0000     1.0000
     0.0000     0.0000     0.0000     0.0000     0.0000
 Hermiticity:        (-4.44089209850062616E-016,0.0000000000000000)
Calculating non-local weights
Calculating KE and non-local eigenvalues to find total energy
 
Init
Exchange-correlation energy      =      -499.07913191541501874 eV
+Hartree energy                  =      2055.86480228865912068 eV
+Local pseudopotential energy    =     -5072.04198973965321784 eV
----------------------------------
Potential energy (total)         =     -3515.25631936638410480 eV
                                  
+Hubbard U energy                =        -2.40000000000000036 eV
+Kinetic energy                  =       776.91409201055114409 eV
+Non-local energy                =       152.02656221898419631 eV
+Electronic entropy term (-TS)   =         0.00000000000000000 eV
+Ewald energy (const)            =      -774.85607651874397561 eV
+non-Coulombic energy (const)    =        13.80612138473854067 eV
----------------------------------
Total free energy (E-TS)         =     -3349.76562027085356021 eV
 
NB est. 0K energy (E-0.5TS)      =     -3349.76562027085356021 eV
 
(XC correction to eigenvalue sum =        44.01690523340165129 eV)
(Hubbard U correction to eigenvalu         0.00000003000000000 eV)
 
------------------------------------------------------------------------ <-- SCF
SCF loop      Energy           Fermi           Energy gain       Timer   <-- SCF
                               energy          per atom          (sec)   <-- SCF
------------------------------------------------------------------------ <-- SCF
Initial  -3.34976562E+003  0.00000000E+000                        14.71  <-- SCF
Starting SCF cycle     1 of up to    30
 no. bands in each block=           8
Kinetic eigenvalue #   1 =     0.38348966E+02
Kinetic eigenvalue #   2 =     0.39990483E+02
Kinetic eigenvalue #   3 =     0.39990481E+02
Kinetic eigenvalue #   4 =     0.39595183E+02
Kinetic eigenvalue #   5 =     0.25112526E+02
Kinetic eigenvalue #   6 =     0.42186730E+02
Kinetic eigenvalue #   7 =     0.37391956E+02
Kinetic eigenvalue #   8 =     0.37412407E+02
Kinetic eigenvalue #   9 =     0.37900587E+02
Kinetic eigenvalue #  10 =     0.37455926E+02
Kinetic eigenvalue #  11 =     0.23372304E+02
Kinetic eigenvalue #  12 =     0.38336692E+02
Kinetic eigenvalue #  13 =     0.38452582E+02
Kinetic eigenvalue #  14 =     0.24719286E+02
Kinetic eigenvalue #  15 =     0.13655775E+02
Kinetic eigenvalue #  16 =     0.14273377E+02
Kinetic eigenvalue #  17 =     0.77296045E+01
 Calculating the R matrix for the precon Sinv operator
 Diagonalising expanded subspace
 Copying updated data back
eigenvalue    1 init= -83.96     fin= -83.96     change= 0.2187E-08
eigenvalue    2 init= -53.14     fin= -53.14     change= 0.1055E-09
eigenvalue    3 init= -53.14     fin= -53.14     change= 0.1089E-09
eigenvalue    4 init= -52.98     fin= -52.98     change= 0.8615E-08
eigenvalue    5 init= -20.27     fin= -20.27     change= 0.1835E-04
eigenvalue    6 init= -7.825     fin= -7.825     change= 0.1305E-03
eigenvalue    7 init= -7.487     fin= -7.487     change= 0.2517E-04
eigenvalue    8 init= -7.487     fin= -7.487     change= 0.2543E-04
 Checking convergence criteria
 Diagonalising expanded subspace
 Copying updated data back
eigenvalue    1 init= -83.96     fin= -83.96     change= 0.2203E-08
eigenvalue    2 init= -53.14     fin= -53.14     change= 0.1062E-09
eigenvalue    3 init= -53.14     fin= -53.14     change= 0.1099E-09
eigenvalue    4 init= -52.98     fin= -52.98     change= 0.9150E-08
eigenvalue    5 init= -20.27     fin= -20.27     change= 0.1934E-04
eigenvalue    6 init= -7.825     fin= -7.825     change= 0.1390E-03
eigenvalue    7 init= -7.487     fin= -7.487     change= 0.2715E-04
eigenvalue    8 init= -7.487     fin= -7.487     change= 0.2734E-04
 Checking convergence criteria
 Diagonalising expanded subspace
 Copying updated data back
eigenvalue    9 init= -6.247     fin= -6.247     change= 0.5746E-06
eigenvalue   10 init= -6.083     fin= -6.083     change= 0.2707E-05
eigenvalue   11 init= -4.331     fin= -4.331     change= 0.6995E-04
eigenvalue   12 init= -3.783     fin= -3.783     change= 0.1551E-04
eigenvalue   13 init= -3.755     fin= -3.755     change= 0.2849E-04
eigenvalue   14 init= -1.844     fin= -1.844     change= 0.6170E-04
eigenvalue   15 init= 0.2948     fin= 0.2948     change= 0.1398E-05
eigenvalue   16 init= 0.4244     fin= 0.4244     change= 0.1292E-05
 Checking convergence criteria
 Diagonalising expanded subspace
 Copying updated data back
eigenvalue    9 init= -6.247     fin= -6.247     change= 0.5779E-06
eigenvalue   10 init= -6.083     fin= -6.083     change= 0.2964E-05
eigenvalue   11 init= -4.331     fin= -4.331     change= 0.7702E-04
eigenvalue   12 init= -3.783     fin= -3.783     change= 0.1729E-04
eigenvalue   13 init= -3.755     fin= -3.755     change= 0.3145E-04
eigenvalue   14 init= -1.844     fin= -1.844     change= 0.6993E-04
eigenvalue   15 init= 0.2948     fin= 0.2948     change= 0.1643E-05
eigenvalue   16 init= 0.4244     fin= 0.4244     change= 0.1686E-05
 Checking convergence criteria
 Diagonalising expanded subspace
 Copying updated data back
eigenvalue   17 init=  2.637     fin=  2.637     change= 0.2860E-05
 Checking convergence criteria
 Diagonalising expanded subspace
 Copying updated data back
eigenvalue   17 init=  2.637     fin=  2.637     change= 0.4850E-05
 Checking convergence criteria
 Diagonalising expanded subspace
 Copying updated data back
eigenvalue   17 init=  2.637     fin=  2.637     change= 0.5940E-05
 Checking convergence criteria
 Diagonalising expanded subspace
 Copying updated data back
eigenvalue   17 init=  2.637     fin=  2.637     change= 0.6547E-05
 Checking convergence criteria
 no. bands in each block=           8
Kinetic eigenvalue #   1 =     0.38348939E+02
Kinetic eigenvalue #   2 =     0.39990472E+02
Kinetic eigenvalue #   3 =     0.39990660E+02
Kinetic eigenvalue #   4 =     0.39595175E+02
Kinetic eigenvalue #   5 =     0.25099043E+02
Kinetic eigenvalue #   6 =     0.42122292E+02
Kinetic eigenvalue #   7 =     0.37333011E+02
Kinetic eigenvalue #   8 =     0.37797759E+02
Kinetic eigenvalue #   9 =     0.37459158E+02
Kinetic eigenvalue #  10 =     0.37726085E+02
Kinetic eigenvalue #  11 =     0.20289061E+02
Kinetic eigenvalue #  12 =     0.37545413E+02
Kinetic eigenvalue #  13 =     0.41168583E+02
Kinetic eigenvalue #  14 =     0.25570923E+02
Kinetic eigenvalue #  15 =     0.13556301E+02
Kinetic eigenvalue #  16 =     0.80528776E+01
Kinetic eigenvalue #  17 =     0.17119358E+02
 Calculating the R matrix for the precon Sinv operator
 Diagonalising expanded subspace
 Copying updated data back
eigenvalue    1 init= -83.96     fin= -83.96     change= 0.2327E-08
eigenvalue    2 init= -53.14     fin= -53.14     change= 0.1064E-09
eigenvalue    3 init= -53.14     fin= -53.14     change= 0.7878E-10
eigenvalue    4 init= -52.98     fin= -52.98     change= 0.7810E-08
eigenvalue    5 init= -20.27     fin= -20.27     change= 0.1639E-04
eigenvalue    6 init= -7.830     fin= -7.831     change= 0.1174E-03
eigenvalue    7 init= -7.491     fin= -7.491     change= 0.2706E-04
eigenvalue    8 init= -7.457     fin= -7.457     change= 0.1443E-04
 Checking convergence criteria
 Diagonalising expanded subspace
 Copying updated data back
eigenvalue    1 init= -83.96     fin= -83.96     change= 0.2372E-08
eigenvalue    2 init= -53.14     fin= -53.14     change= 0.1076E-09
eigenvalue    3 init= -53.14     fin= -53.14     change= 0.7946E-10
eigenvalue    4 init= -52.98     fin= -52.98     change= 0.8294E-08
eigenvalue    5 init= -20.27     fin= -20.27     change= 0.1727E-04
eigenvalue    6 init= -7.830     fin= -7.831     change= 0.1255E-03
eigenvalue    7 init= -7.491     fin= -7.491     change= 0.2913E-04
eigenvalue    8 init= -7.457     fin= -7.457     change= 0.1531E-04
 Checking convergence criteria
 Diagonalising expanded subspace
 Copying updated data back
eigenvalue    9 init= -6.283     fin= -6.283     change= 0.8989E-06
eigenvalue   10 init= -6.062     fin= -6.062     change= 0.1828E-05
eigenvalue   11 init= -4.574     fin= -4.574     change= 0.5570E-04
eigenvalue   12 init= -3.802     fin= -3.802     change= 0.2330E-04
eigenvalue   13 init= -3.655     fin= -3.655     change= 0.8459E-05
eigenvalue   14 init= -2.044     fin= -2.044     change= 0.6142E-04
eigenvalue   15 init= -.7284E-01 fin= -.7284E-01 change= 0.1683E-05
eigenvalue   16 init=  2.018     fin=  2.018     change= 0.6754E-05
 Checking convergence criteria
 Diagonalising expanded subspace
 Copying updated data back
eigenvalue    9 init= -6.283     fin= -6.283     change= 0.9156E-06
eigenvalue   10 init= -6.062     fin= -6.062     change= 0.1973E-05
eigenvalue   11 init= -4.574     fin= -4.574     change= 0.6220E-04
eigenvalue   12 init= -3.802     fin= -3.802     change= 0.2609E-04
eigenvalue   13 init= -3.655     fin= -3.655     change= 0.9098E-05
eigenvalue   14 init= -2.044     fin= -2.044     change= 0.7106E-04
eigenvalue   15 init= -.7284E-01 fin= -.7284E-01 change= 0.2056E-05
eigenvalue   16 init=  2.018     fin=  2.018     change= 0.8910E-05
 Checking convergence criteria
 Diagonalising expanded subspace
 Copying updated data back
eigenvalue    9 init= -6.283     fin= -6.283     change= 0.9177E-06
eigenvalue   10 init= -6.062     fin= -6.062     change= 0.1974E-05
eigenvalue   11 init= -4.574     fin= -4.574     change= 0.6277E-04
eigenvalue   12 init= -3.802     fin= -3.802     change= 0.2613E-04
eigenvalue   13 init= -3.655     fin= -3.655     change= 0.9114E-05
eigenvalue   14 init= -2.044     fin= -2.044     change= 0.7237E-04
eigenvalue   15 init= -.7284E-01 fin= -.7284E-01 change= 0.2070E-05
eigenvalue   16 init=  2.018     fin=  2.018     change= 0.9754E-05
 Checking convergence criteria
 Diagonalising expanded subspace
 Copying updated data back
eigenvalue   17 init=  2.479     fin=  2.479     change= 0.3513E-06
 Checking convergence criteria
 no. bands in each block=           8
Kinetic eigenvalue #   1 =     0.38348954E+02
Kinetic eigenvalue #   2 =     0.39990472E+02
Kinetic eigenvalue #   3 =     0.39990660E+02
Kinetic eigenvalue #   4 =     0.39595175E+02
Kinetic eigenvalue #   5 =     0.25099043E+02
Kinetic eigenvalue #   6 =     0.42122290E+02
Kinetic eigenvalue #   7 =     0.37333009E+02
Kinetic eigenvalue #   8 =     0.37797753E+02
Kinetic eigenvalue #   9 =     0.37459157E+02
Kinetic eigenvalue #  10 =     0.37726085E+02
Kinetic eigenvalue #  11 =     0.20289048E+02
Kinetic eigenvalue #  12 =     0.37545412E+02
Kinetic eigenvalue #  13 =     0.41168606E+02
Kinetic eigenvalue #  14 =     0.25570897E+02
Kinetic eigenvalue #  15 =     0.13556246E+02
Kinetic eigenvalue #  16 =     0.80526225E+01
Kinetic eigenvalue #  17 =     0.17119021E+02
 Calculating the R matrix for the precon Sinv operator
 Diagonalising expanded subspace
 Copying updated data back
eigenvalue    1 init= -83.96     fin= -83.96     change= 0.2203E-08
eigenvalue    2 init= -53.14     fin= -53.14     change= 0.1061E-09
eigenvalue    3 init= -53.14     fin= -53.14     change= 0.7895E-10
eigenvalue    4 init= -52.98     fin= -52.98     change= 0.7807E-08
eigenvalue    5 init= -20.27     fin= -20.27     change= 0.1640E-04
eigenvalue    6 init= -7.830     fin= -7.831     change= 0.1176E-03
eigenvalue    7 init= -7.491     fin= -7.491     change= 0.2705E-04
eigenvalue    8 init= -7.457     fin= -7.457     change= 0.1442E-04
 Checking convergence criteria
 Diagonalising expanded subspace
 Copying updated data back
eigenvalue    1 init= -83.96     fin= -83.96     change= 0.2243E-08
eigenvalue    2 init= -53.14     fin= -53.14     change= 0.1074E-09
eigenvalue    3 init= -53.14     fin= -53.14     change= 0.7965E-10
eigenvalue    4 init= -52.98     fin= -52.98     change= 0.8293E-08
eigenvalue    5 init= -20.27     fin= -20.27     change= 0.1728E-04
eigenvalue    6 init= -7.830     fin= -7.831     change= 0.1256E-03
eigenvalue    7 init= -7.491     fin= -7.491     change= 0.2912E-04
eigenvalue    8 init= -7.457     fin= -7.457     change= 0.1530E-04
 Checking convergence criteria
 Diagonalising expanded subspace
 Copying updated data back
eigenvalue    9 init= -6.283     fin= -6.283     change= 0.8994E-06
eigenvalue   10 init= -6.062     fin= -6.062     change= 0.1829E-05
eigenvalue   11 init= -4.574     fin= -4.574     change= 0.5570E-04
eigenvalue   12 init= -3.802     fin= -3.802     change= 0.2332E-04
eigenvalue   13 init= -3.655     fin= -3.655     change= 0.8437E-05
eigenvalue   14 init= -2.044     fin= -2.044     change= 0.6144E-04
eigenvalue   15 init= -.7284E-01 fin= -.7284E-01 change= 0.1699E-05
eigenvalue   16 init=  2.018     fin=  2.018     change= 0.6735E-05
 Checking convergence criteria
 Diagonalising expanded subspace
 Copying updated data back
eigenvalue    9 init= -6.283     fin= -6.283     change= 0.9170E-06
eigenvalue   10 init= -6.062     fin= -6.062     change= 0.1974E-05
eigenvalue   11 init= -4.574     fin= -4.574     change= 0.6210E-04
eigenvalue   12 init= -3.802     fin= -3.802     change= 0.2604E-04
eigenvalue   13 init= -3.655     fin= -3.655     change= 0.9071E-05
eigenvalue   14 init= -2.044     fin= -2.044     change= 0.7087E-04
eigenvalue   15 init= -.7284E-01 fin= -.7284E-01 change= 0.2073E-05
eigenvalue   16 init=  2.018     fin=  2.018     change= 0.8888E-05
 Checking convergence criteria
 Diagonalising expanded subspace
 Copying updated data back
eigenvalue    9 init= -6.283     fin= -6.283     change= 0.9199E-06
eigenvalue   10 init= -6.062     fin= -6.062     change= 0.1974E-05
eigenvalue   11 init= -4.574     fin= -4.574     change= 0.6280E-04
eigenvalue   12 init= -3.802     fin= -3.802     change= 0.2609E-04
eigenvalue   13 init= -3.655     fin= -3.655     change= 0.9087E-05
eigenvalue   14 init= -2.044     fin= -2.044     change= 0.7242E-04
eigenvalue   15 init= -.7284E-01 fin= -.7284E-01 change= 0.2089E-05
eigenvalue   16 init=  2.018     fin=  2.018     change= 0.9795E-05
 Checking convergence criteria
 Diagonalising expanded subspace
 Copying updated data back
eigenvalue   17 init=  2.479     fin=  2.479     change= 0.3402E-06
 Checking convergence criteria
 no. bands in each block=           8
Kinetic eigenvalue #   1 =     0.38348971E+02
Kinetic eigenvalue #   2 =     0.39990483E+02
Kinetic eigenvalue #   3 =     0.39990481E+02
Kinetic eigenvalue #   4 =     0.39595183E+02
Kinetic eigenvalue #   5 =     0.25112526E+02
Kinetic eigenvalue #   6 =     0.42186747E+02
Kinetic eigenvalue #   7 =     0.37391950E+02
Kinetic eigenvalue #   8 =     0.37412406E+02
Kinetic eigenvalue #   9 =     0.37900587E+02
Kinetic eigenvalue #  10 =     0.37455932E+02
Kinetic eigenvalue #  11 =     0.23372275E+02
Kinetic eigenvalue #  12 =     0.38336693E+02
Kinetic eigenvalue #  13 =     0.38452615E+02
Kinetic eigenvalue #  14 =     0.24719402E+02
Kinetic eigenvalue #  15 =     0.13655755E+02
Kinetic eigenvalue #  16 =     0.14273376E+02
Kinetic eigenvalue #  17 =     0.77276904E+01
 Calculating the R matrix for the precon Sinv operator
 Diagonalising expanded subspace
 Copying updated data back
eigenvalue    1 init= -83.96     fin= -83.96     change= 0.2152E-08
eigenvalue    2 init= -53.14     fin= -53.14     change= 0.1056E-09
eigenvalue    3 init= -53.14     fin= -53.14     change= 0.1086E-09
eigenvalue    4 init= -52.98     fin= -52.98     change= 0.8628E-08
eigenvalue    5 init= -20.27     fin= -20.27     change= 0.1838E-04
eigenvalue    6 init= -7.825     fin= -7.825     change= 0.1308E-03
eigenvalue    7 init= -7.487     fin= -7.487     change= 0.2516E-04
eigenvalue    8 init= -7.487     fin= -7.487     change= 0.2542E-04
 Checking convergence criteria
 Diagonalising expanded subspace
 Copying updated data back
eigenvalue    1 init= -83.96     fin= -83.96     change= 0.2166E-08
eigenvalue    2 init= -53.14     fin= -53.14     change= 0.1064E-09
eigenvalue    3 init= -53.14     fin= -53.14     change= 0.1097E-09
eigenvalue    4 init= -52.98     fin= -52.98     change= 0.9155E-08
eigenvalue    5 init= -20.27     fin= -20.27     change= 0.1935E-04
eigenvalue    6 init= -7.825     fin= -7.825     change= 0.1393E-03
eigenvalue    7 init= -7.487     fin= -7.487     change= 0.2711E-04
eigenvalue    8 init= -7.487     fin= -7.487     change= 0.2734E-04
 Checking convergence criteria
 Diagonalising expanded subspace
 Copying updated data back
eigenvalue    9 init= -6.247     fin= -6.247     change= 0.5746E-06
eigenvalue   10 init= -6.083     fin= -6.083     change= 0.2705E-05
eigenvalue   11 init= -4.331     fin= -4.331     change= 0.7086E-04
eigenvalue   12 init= -3.783     fin= -3.783     change= 0.1551E-04
eigenvalue   13 init= -3.755     fin= -3.755     change= 0.2846E-04
eigenvalue   14 init= -1.844     fin= -1.844     change= 0.6256E-04
eigenvalue   15 init= 0.2948     fin= 0.2948     change= 0.1422E-05
eigenvalue   16 init= 0.4244     fin= 0.4244     change= 0.1292E-05
 Checking convergence criteria
 Diagonalising expanded subspace
 Copying updated data back
eigenvalue    9 init= -6.247     fin= -6.247     change= 0.5779E-06
eigenvalue   10 init= -6.083     fin= -6.083     change= 0.2962E-05
eigenvalue   11 init= -4.331     fin= -4.331     change= 0.7753E-04
eigenvalue   12 init= -3.783     fin= -3.783     change= 0.1729E-04
eigenvalue   13 init= -3.755     fin= -3.755     change= 0.3142E-04
eigenvalue   14 init= -1.844     fin= -1.844     change= 0.7045E-04
eigenvalue   15 init= 0.2948     fin= 0.2948     change= 0.1677E-05
eigenvalue   16 init= 0.4244     fin= 0.4244     change= 0.1687E-05
 Checking convergence criteria
 Diagonalising expanded subspace
 Copying updated data back
eigenvalue   17 init=  2.637     fin=  2.637     change= 0.3808E-05
 Checking convergence criteria
 Diagonalising expanded subspace
 Copying updated data back
eigenvalue   17 init=  2.637     fin=  2.637     change= 0.5520E-05
 Checking convergence criteria
 Diagonalising expanded subspace
 Copying updated data back
eigenvalue   17 init=  2.637     fin=  2.637     change= 0.6695E-05
 Checking convergence criteria
 Diagonalising expanded subspace
 Copying updated data back
eigenvalue   17 init=  2.637     fin=  2.637     change= 0.7311E-05
 Checking convergence criteria
 no. bands in each block=           8
Kinetic eigenvalue #   1 =     0.38348960E+02
Kinetic eigenvalue #   2 =     0.39990472E+02
Kinetic eigenvalue #   3 =     0.39990660E+02
Kinetic eigenvalue #   4 =     0.39595175E+02
Kinetic eigenvalue #   5 =     0.25099043E+02
Kinetic eigenvalue #   6 =     0.42122289E+02
Kinetic eigenvalue #   7 =     0.37333012E+02
Kinetic eigenvalue #   8 =     0.37797753E+02
Kinetic eigenvalue #   9 =     0.37459155E+02
Kinetic eigenvalue #  10 =     0.37726085E+02
Kinetic eigenvalue #  11 =     0.20289011E+02
Kinetic eigenvalue #  12 =     0.37545438E+02
Kinetic eigenvalue #  13 =     0.41168603E+02
Kinetic eigenvalue #  14 =     0.25571076E+02
Kinetic eigenvalue #  15 =     0.13556085E+02
Kinetic eigenvalue #  16 =     0.80522571E+01
Kinetic eigenvalue #  17 =     0.17118951E+02
 Calculating the R matrix for the precon Sinv operator
 Diagonalising expanded subspace
 Copying updated data back
eigenvalue    1 init= -83.96     fin= -83.96     change= 0.2173E-08
eigenvalue    2 init= -53.14     fin= -53.14     change= 0.1059E-09
eigenvalue    3 init= -53.14     fin= -53.14     change= 0.7899E-10
eigenvalue    4 init= -52.98     fin= -52.98     change= 0.7807E-08
eigenvalue    5 init= -20.27     fin= -20.27     change= 0.1640E-04
eigenvalue    6 init= -7.830     fin= -7.831     change= 0.1176E-03
eigenvalue    7 init= -7.491     fin= -7.491     change= 0.2706E-04
eigenvalue    8 init= -7.457     fin= -7.457     change= 0.1442E-04
 Checking convergence criteria
 Diagonalising expanded subspace
 Copying updated data back
eigenvalue    1 init= -83.96     fin= -83.96     change= 0.2210E-08
eigenvalue    2 init= -53.14     fin= -53.14     change= 0.1071E-09
eigenvalue    3 init= -53.14     fin= -53.14     change= 0.7973E-10
eigenvalue    4 init= -52.98     fin= -52.98     change= 0.8294E-08
eigenvalue    5 init= -20.27     fin= -20.27     change= 0.1728E-04
eigenvalue    6 init= -7.830     fin= -7.831     change= 0.1256E-03
eigenvalue    7 init= -7.491     fin= -7.491     change= 0.2912E-04
eigenvalue    8 init= -7.457     fin= -7.457     change= 0.1530E-04
 Checking convergence criteria
 Diagonalising expanded subspace
 Copying updated data back
eigenvalue    9 init= -6.283     fin= -6.283     change= 0.8985E-06
eigenvalue   10 init= -6.062     fin= -6.062     change= 0.1828E-05
eigenvalue   11 init= -4.574     fin= -4.574     change= 0.5583E-04
eigenvalue   12 init= -3.802     fin= -3.802     change= 0.2325E-04
eigenvalue   13 init= -3.655     fin= -3.655     change= 0.8457E-05
eigenvalue   14 init= -2.044     fin= -2.044     change= 0.6129E-04
eigenvalue   15 init= -.7284E-01 fin= -.7284E-01 change= 0.1753E-05
eigenvalue   16 init=  2.018     fin=  2.018     change= 0.6860E-05
 Checking convergence criteria
 Diagonalising expanded subspace
 Copying updated data back
eigenvalue    9 init= -6.283     fin= -6.283     change= 0.9157E-06
eigenvalue   10 init= -6.062     fin= -6.062     change= 0.1973E-05
eigenvalue   11 init= -4.574     fin= -4.574     change= 0.6177E-04
eigenvalue   12 init= -3.802     fin= -3.802     change= 0.2597E-04
eigenvalue   13 init= -3.655     fin= -3.655     change= 0.9114E-05
eigenvalue   14 init= -2.044     fin= -2.044     change= 0.6981E-04
eigenvalue   15 init= -.7284E-01 fin= -.7284E-01 change= 0.2160E-05
eigenvalue   16 init=  2.018     fin=  2.018     change= 0.8820E-05
 Checking convergence criteria
 Diagonalising expanded subspace
 Copying updated data back
eigenvalue   17 init=  2.479     fin=  2.479     change= 0.3411E-06
 Checking convergence criteria
 no. bands in each block=           8
Kinetic eigenvalue #   1 =     0.37872827E+02
Kinetic eigenvalue #   2 =     0.39259389E+02
Kinetic eigenvalue #   3 =     0.39828255E+02
Kinetic eigenvalue #   4 =     0.39828260E+02
Kinetic eigenvalue #   5 =     0.25186723E+02
Kinetic eigenvalue #   6 =     0.43805622E+02
Kinetic eigenvalue #   7 =     0.37875739E+02
Kinetic eigenvalue #   8 =     0.37953623E+02
Kinetic eigenvalue #   9 =     0.36819316E+02
Kinetic eigenvalue #  10 =     0.32265673E+02
Kinetic eigenvalue #  11 =     0.22439585E+02
Kinetic eigenvalue #  12 =     0.36089903E+02
Kinetic eigenvalue #  13 =     0.36345366E+02
Kinetic eigenvalue #  14 =     0.23975481E+02
Kinetic eigenvalue #  15 =     0.13730900E+02
Kinetic eigenvalue #  16 =     0.14861435E+02
Kinetic eigenvalue #  17 =     0.80852684E+01
 Calculating the R matrix for the precon Sinv operator
 Diagonalising expanded subspace
 Copying updated data back
eigenvalue    1 init= -80.00     fin= -80.00     change= 0.3967E-08
eigenvalue    2 init= -49.54     fin= -49.54     change= 0.2472E-07
eigenvalue    3 init= -49.09     fin= -49.09     change= 0.2067E-09
eigenvalue    4 init= -49.09     fin= -49.09     change= 0.2252E-09
eigenvalue    5 init= -19.80     fin= -19.80     change= 0.3140E-04
eigenvalue    6 init= -6.729     fin= -6.729     change= 0.1458E-03
eigenvalue    7 init= -5.989     fin= -5.989     change= 0.2634E-04
eigenvalue    8 init= -5.986     fin= -5.986     change= 0.1566E-04
 Checking convergence criteria
 Diagonalising expanded subspace
 Copying updated data back
eigenvalue    1 init= -80.00     fin= -80.00     change= 0.4086E-08
eigenvalue    2 init= -49.54     fin= -49.54     change= 0.2601E-07
eigenvalue    3 init= -49.09     fin= -49.09     change= 0.2080E-09
eigenvalue    4 init= -49.09     fin= -49.09     change= 0.2270E-09
eigenvalue    5 init= -19.80     fin= -19.80     change= 0.3296E-04
eigenvalue    6 init= -6.729     fin= -6.729     change= 0.1546E-03
eigenvalue    7 init= -5.989     fin= -5.989     change= 0.2863E-04
eigenvalue    8 init= -5.986     fin= -5.986     change= 0.1673E-04
 Checking convergence criteria
 Diagonalising expanded subspace
 Copying updated data back
eigenvalue    9 init= -2.549     fin= -2.549     change= 0.2322E-04
eigenvalue   10 init= -2.424     fin= -2.424     change= 0.1231E-03
eigenvalue   11 init= -2.086     fin= -2.087     change= 0.2227E-03
eigenvalue   12 init= -1.391     fin= -1.391     change= 0.3658E-04
eigenvalue   13 init= -1.360     fin= -1.360     change= 0.1345E-03
eigenvalue   14 init= -.3232     fin= -.3234     change= 0.2080E-03
eigenvalue   15 init=  1.600     fin=  1.600     change= 0.2521E-05
eigenvalue   16 init=  1.829     fin=  1.829     change= 0.2377E-05
 Checking convergence criteria
 Diagonalising expanded subspace
 Copying updated data back
eigenvalue    9 init= -2.549     fin= -2.549     change= 0.2431E-04
eigenvalue   10 init= -2.424     fin= -2.424     change= 0.1335E-03
eigenvalue   11 init= -2.086     fin= -2.087     change= 0.2445E-03
eigenvalue   12 init= -1.391     fin= -1.391     change= 0.4148E-04
eigenvalue   13 init= -1.360     fin= -1.360     change= 0.1494E-03
eigenvalue   14 init= -.3232     fin= -.3234     change= 0.2337E-03
eigenvalue   15 init=  1.600     fin=  1.600     change= 0.2972E-05
eigenvalue   16 init=  1.829     fin=  1.829     change= 0.3033E-05
 Checking convergence criteria
 Diagonalising expanded subspace
 Copying updated data back
eigenvalue   17 init=  3.126     fin=  3.126     change= 0.1690E-04
 Checking convergence criteria
 Diagonalising expanded subspace
 Copying updated data back
eigenvalue   17 init=  3.126     fin=  3.126     change= 0.2447E-04
 Checking convergence criteria
 Diagonalising expanded subspace
 Copying updated data back
eigenvalue   17 init=  3.126     fin=  3.126     change= 0.2843E-04
 Checking convergence criteria
 no. bands in each block=           8
Kinetic eigenvalue #   1 =     0.37872752E+02
Kinetic eigenvalue #   2 =     0.39259377E+02
Kinetic eigenvalue #   3 =     0.39828243E+02
Kinetic eigenvalue #   4 =     0.39828505E+02
Kinetic eigenvalue #   5 =     0.25173050E+02
Kinetic eigenvalue #   6 =     0.43723010E+02
Kinetic eigenvalue #   7 =     0.37749840E+02
Kinetic eigenvalue #   8 =     0.38728885E+02
Kinetic eigenvalue #   9 =     0.19304159E+02
Kinetic eigenvalue #  10 =     0.31832881E+02
Kinetic eigenvalue #  11 =     0.36757792E+02
Kinetic eigenvalue #  12 =     0.34455454E+02
Kinetic eigenvalue #  13 =     0.39782238E+02
Kinetic eigenvalue #  14 =     0.24529100E+02
Kinetic eigenvalue #  15 =     0.14893019E+02
Kinetic eigenvalue #  16 =     0.89241411E+01
Kinetic eigenvalue #  17 =     0.16019077E+02
 Calculating the R matrix for the precon Sinv operator
 Diagonalising expanded subspace
 Copying updated data back
eigenvalue    1 init= -80.00     fin= -80.00     change= 0.3271E-08
eigenvalue    2 init= -49.54     fin= -49.54     change= 0.2474E-07
eigenvalue    3 init= -49.09     fin= -49.09     change= 0.2171E-09
eigenvalue    4 init= -49.09     fin= -49.09     change= 0.1465E-09
eigenvalue    5 init= -19.80     fin= -19.80     change= 0.3144E-04
eigenvalue    6 init= -6.733     fin= -6.733     change= 0.1485E-03
eigenvalue    7 init= -5.996     fin= -5.996     change= 0.1995E-04
eigenvalue    8 init= -5.932     fin= -5.932     change= 0.1202E-04
 Checking convergence criteria
 Diagonalising expanded subspace
 Copying updated data back
eigenvalue    1 init= -80.00     fin= -80.00     change= 0.3338E-08
eigenvalue    2 init= -49.54     fin= -49.54     change= 0.2604E-07
eigenvalue    3 init= -49.09     fin= -49.09     change= 0.2185E-09
eigenvalue    4 init= -49.09     fin= -49.09     change= 0.1470E-09
eigenvalue    5 init= -19.80     fin= -19.80     change= 0.3323E-04
eigenvalue    6 init= -6.733     fin= -6.733     change= 0.1607E-03
eigenvalue    7 init= -5.996     fin= -5.996     change= 0.2121E-04
eigenvalue    8 init= -5.932     fin= -5.932     change= 0.1257E-04
 Checking convergence criteria
 Diagonalising expanded subspace
 Copying updated data back
eigenvalue    9 init= -2.683     fin= -2.683     change= 0.1222E-03
eigenvalue   10 init= -2.387     fin= -2.387     change= 0.1368E-03
eigenvalue   11 init= -2.368     fin= -2.368     change= 0.6121E-04
eigenvalue   12 init= -1.425     fin= -1.425     change= 0.8664E-04
eigenvalue   13 init= -1.252     fin= -1.252     change= 0.2799E-04
eigenvalue   14 init= -.5376     fin= -.5379     change= 0.2657E-03
eigenvalue   15 init=  1.200     fin=  1.200     change= 0.4907E-05
eigenvalue   16 init=  2.522     fin=  2.522     change= 0.4741E-04
 Checking convergence criteria
 Diagonalising expanded subspace
 Copying updated data back
eigenvalue    9 init= -2.683     fin= -2.683     change= 0.1327E-03
eigenvalue   10 init= -2.387     fin= -2.387     change= 0.1517E-03
eigenvalue   11 init= -2.368     fin= -2.368     change= 0.6427E-04
eigenvalue   12 init= -1.425     fin= -1.425     change= 0.9783E-04
eigenvalue   13 init= -1.252     fin= -1.252     change= 0.3004E-04
eigenvalue   14 init= -.5376     fin= -.5379     change= 0.3059E-03
eigenvalue   15 init=  1.200     fin=  1.200     change= 0.6029E-05
eigenvalue   16 init=  2.522     fin=  2.522     change= 0.6364E-04
 Checking convergence criteria
 Diagonalising expanded subspace
 Copying updated data back
eigenvalue    9 init= -2.683     fin= -2.683     change= 0.1330E-03
eigenvalue   10 init= -2.387     fin= -2.387     change= 0.1522E-03
eigenvalue   11 init= -2.368     fin= -2.368     change= 0.6427E-04
eigenvalue   12 init= -1.425     fin= -1.425     change= 0.9835E-04
eigenvalue   13 init= -1.252     fin= -1.252     change= 0.3006E-04
eigenvalue   14 init= -.5376     fin= -.5379     change= 0.3086E-03
eigenvalue   15 init=  1.200     fin=  1.200     change= 0.6067E-05
eigenvalue   16 init=  2.522     fin=  2.522     change= 0.6644E-04
 Checking convergence criteria
 Diagonalising expanded subspace
 Copying updated data back
eigenvalue   17 init=  4.236     fin=  4.236     change= 0.5997E-06
 Checking convergence criteria
 no. bands in each block=           8
Kinetic eigenvalue #   1 =     0.37872751E+02
Kinetic eigenvalue #   2 =     0.39259377E+02
Kinetic eigenvalue #   3 =     0.39828243E+02
Kinetic eigenvalue #   4 =     0.39828505E+02
Kinetic eigenvalue #   5 =     0.25173050E+02
Kinetic eigenvalue #   6 =     0.43723008E+02
Kinetic eigenvalue #   7 =     0.37749840E+02
Kinetic eigenvalue #   8 =     0.38728884E+02
Kinetic eigenvalue #   9 =     0.19304442E+02
Kinetic eigenvalue #  10 =     0.31832881E+02
Kinetic eigenvalue #  11 =     0.36757791E+02
Kinetic eigenvalue #  12 =     0.34455446E+02
Kinetic eigenvalue #  13 =     0.39782223E+02
Kinetic eigenvalue #  14 =     0.24529668E+02
Kinetic eigenvalue #  15 =     0.14893033E+02
Kinetic eigenvalue #  16 =     0.89240129E+01
Kinetic eigenvalue #  17 =     0.16026346E+02
 Calculating the R matrix for the precon Sinv operator
 Diagonalising expanded subspace
 Copying updated data back
eigenvalue    1 init= -80.00     fin= -80.00     change= 0.3276E-08
eigenvalue    2 init= -49.54     fin= -49.54     change= 0.2475E-07
eigenvalue    3 init= -49.09     fin= -49.09     change= 0.2170E-09
eigenvalue    4 init= -49.09     fin= -49.09     change= 0.1458E-09
eigenvalue    5 init= -19.80     fin= -19.80     change= 0.3144E-04
eigenvalue    6 init= -6.733     fin= -6.733     change= 0.1485E-03
eigenvalue    7 init= -5.996     fin= -5.996     change= 0.1996E-04
eigenvalue    8 init= -5.932     fin= -5.932     change= 0.1194E-04
 Checking convergence criteria
 Diagonalising expanded subspace
 Copying updated data back
eigenvalue    1 init= -80.00     fin= -80.00     change= 0.3343E-08
eigenvalue    2 init= -49.54     fin= -49.54     change= 0.2605E-07
eigenvalue    3 init= -49.09     fin= -49.09     change= 0.2184E-09
eigenvalue    4 init= -49.09     fin= -49.09     change= 0.1464E-09
eigenvalue    5 init= -19.80     fin= -19.80     change= 0.3324E-04
eigenvalue    6 init= -6.733     fin= -6.733     change= 0.1608E-03
eigenvalue    7 init= -5.996     fin= -5.996     change= 0.2121E-04
eigenvalue    8 init= -5.932     fin= -5.932     change= 0.1247E-04
 Checking convergence criteria
 Diagonalising expanded subspace
 Copying updated data back
eigenvalue    9 init= -2.683     fin= -2.683     change= 0.1222E-03
eigenvalue   10 init= -2.387     fin= -2.387     change= 0.1375E-03
eigenvalue   11 init= -2.368     fin= -2.368     change= 0.6119E-04
eigenvalue   12 init= -1.425     fin= -1.425     change= 0.8667E-04
eigenvalue   13 init= -1.252     fin= -1.252     change= 0.2777E-04
eigenvalue   14 init= -.5376     fin= -.5379     change= 0.2644E-03
eigenvalue   15 init=  1.200     fin=  1.200     change= 0.4981E-05
eigenvalue   16 init=  2.522     fin=  2.522     change= 0.4760E-04
 Checking convergence criteria
 Diagonalising expanded subspace
 Copying updated data back
eigenvalue    9 init= -2.683     fin= -2.683     change= 0.1326E-03
eigenvalue   10 init= -2.387     fin= -2.387     change= 0.1522E-03
eigenvalue   11 init= -2.368     fin= -2.368     change= 0.6425E-04
eigenvalue   12 init= -1.425     fin= -1.425     change= 0.9768E-04
eigenvalue   13 init= -1.252     fin= -1.252     change= 0.2980E-04
eigenvalue   14 init= -.5376     fin= -.5379     change= 0.3034E-03
eigenvalue   15 init=  1.200     fin=  1.200     change= 0.6127E-05
eigenvalue   16 init=  2.522     fin=  2.522     change= 0.6370E-04
 Checking convergence criteria
 Diagonalising expanded subspace
 Copying updated data back
eigenvalue    9 init= -2.683     fin= -2.683     change= 0.1331E-03
eigenvalue   10 init= -2.387     fin= -2.387     change= 0.1528E-03
eigenvalue   11 init= -2.368     fin= -2.368     change= 0.6425E-04
eigenvalue   12 init= -1.425     fin= -1.425     change= 0.9851E-04
eigenvalue   13 init= -1.252     fin= -1.252     change= 0.2983E-04
eigenvalue   14 init= -.5376     fin= -.5379     change= 0.3064E-03
eigenvalue   15 init=  1.200     fin=  1.200     change= 0.6190E-05
eigenvalue   16 init=  2.522     fin=  2.522     change= 0.6643E-04
 Checking convergence criteria
 Diagonalising expanded subspace
 Copying updated data back
eigenvalue   17 init=  4.236     fin=  4.236     change= 0.6656E-06
 Checking convergence criteria
 no. bands in each block=           8
Kinetic eigenvalue #   1 =     0.37872810E+02
Kinetic eigenvalue #   2 =     0.39259389E+02
Kinetic eigenvalue #   3 =     0.39828255E+02
Kinetic eigenvalue #   4 =     0.39828260E+02
Kinetic eigenvalue #   5 =     0.25186721E+02
Kinetic eigenvalue #   6 =     0.43805574E+02
Kinetic eigenvalue #   7 =     0.37875726E+02
Kinetic eigenvalue #   8 =     0.37953623E+02
Kinetic eigenvalue #   9 =     0.36819317E+02
Kinetic eigenvalue #  10 =     0.32265597E+02
Kinetic eigenvalue #  11 =     0.22439552E+02
Kinetic eigenvalue #  12 =     0.36089907E+02
Kinetic eigenvalue #  13 =     0.36345377E+02
Kinetic eigenvalue #  14 =     0.23975518E+02
Kinetic eigenvalue #  15 =     0.13729851E+02
Kinetic eigenvalue #  16 =     0.14861414E+02
Kinetic eigenvalue #  17 =     0.80823873E+01
 Calculating the R matrix for the precon Sinv operator
 Diagonalising expanded subspace
 Copying updated data back
eigenvalue    1 init= -80.00     fin= -80.00     change= 0.4030E-08
eigenvalue    2 init= -49.54     fin= -49.54     change= 0.2466E-07
eigenvalue    3 init= -49.09     fin= -49.09     change= 0.2066E-09
eigenvalue    4 init= -49.09     fin= -49.09     change= 0.2255E-09
eigenvalue    5 init= -19.80     fin= -19.80     change= 0.3129E-04
eigenvalue    6 init= -6.729     fin= -6.729     change= 0.1448E-03
eigenvalue    7 init= -5.989     fin= -5.989     change= 0.2638E-04
eigenvalue    8 init= -5.986     fin= -5.986     change= 0.1566E-04
 Checking convergence criteria
 Diagonalising expanded subspace
 Copying updated data back
eigenvalue    1 init= -80.00     fin= -80.00     change= 0.4149E-08
eigenvalue    2 init= -49.54     fin= -49.54     change= 0.2598E-07
eigenvalue    3 init= -49.09     fin= -49.09     change= 0.2078E-09
eigenvalue    4 init= -49.09     fin= -49.09     change= 0.2272E-09
eigenvalue    5 init= -19.80     fin= -19.80     change= 0.3293E-04
eigenvalue    6 init= -6.729     fin= -6.729     change= 0.1540E-03
eigenvalue    7 init= -5.989     fin= -5.989     change= 0.2870E-04
eigenvalue    8 init= -5.986     fin= -5.986     change= 0.1673E-04
 Checking convergence criteria
 Diagonalising expanded subspace
 Copying updated data back
eigenvalue    9 init= -2.549     fin= -2.549     change= 0.2322E-04
eigenvalue   10 init= -2.424     fin= -2.424     change= 0.1235E-03
eigenvalue   11 init= -2.086     fin= -2.087     change= 0.2236E-03
eigenvalue   12 init= -1.391     fin= -1.391     change= 0.3655E-04
eigenvalue   13 init= -1.360     fin= -1.360     change= 0.1343E-03
eigenvalue   14 init= -.3232     fin= -.3234     change= 0.2087E-03
eigenvalue   15 init=  1.600     fin=  1.600     change= 0.2673E-05
eigenvalue   16 init=  1.829     fin=  1.829     change= 0.2378E-05
 Checking convergence criteria
 Diagonalising expanded subspace
 Copying updated data back
eigenvalue    9 init= -2.549     fin= -2.549     change= 0.2431E-04
eigenvalue   10 init= -2.424     fin= -2.424     change= 0.1339E-03
eigenvalue   11 init= -2.086     fin= -2.087     change= 0.2446E-03
eigenvalue   12 init= -1.391     fin= -1.391     change= 0.4147E-04
eigenvalue   13 init= -1.360     fin= -1.360     change= 0.1495E-03
eigenvalue   14 init= -.3232     fin= -.3234     change= 0.2336E-03
eigenvalue   15 init=  1.600     fin=  1.600     change= 0.3166E-05
eigenvalue   16 init=  1.829     fin=  1.829     change= 0.3041E-05
 Checking convergence criteria
 Diagonalising expanded subspace
 Copying updated data back
eigenvalue   17 init=  3.126     fin=  3.126     change= 0.1587E-04
 Checking convergence criteria
 Diagonalising expanded subspace
 Copying updated data back
eigenvalue   17 init=  3.126     fin=  3.126     change= 0.2655E-04
 Checking convergence criteria
 Diagonalising expanded subspace
 Copying updated data back
eigenvalue   17 init=  3.126     fin=  3.126     change= 0.3169E-04
 Checking convergence criteria
 Diagonalising expanded subspace
 Copying updated data back
eigenvalue   17 init=  3.126     fin=  3.126     change= 0.3411E-04
 Checking convergence criteria
 no. bands in each block=           8
Kinetic eigenvalue #   1 =     0.37872752E+02
Kinetic eigenvalue #   2 =     0.39259377E+02
Kinetic eigenvalue #   3 =     0.39828243E+02
Kinetic eigenvalue #   4 =     0.39828505E+02
Kinetic eigenvalue #   5 =     0.25173050E+02
Kinetic eigenvalue #   6 =     0.43723007E+02
Kinetic eigenvalue #   7 =     0.37749840E+02
Kinetic eigenvalue #   8 =     0.38728886E+02
Kinetic eigenvalue #   9 =     0.19304417E+02
Kinetic eigenvalue #  10 =     0.31832909E+02
Kinetic eigenvalue #  11 =     0.36757792E+02
Kinetic eigenvalue #  12 =     0.34455431E+02
Kinetic eigenvalue #  13 =     0.39782232E+02
Kinetic eigenvalue #  14 =     0.24529650E+02
Kinetic eigenvalue #  15 =     0.14893062E+02
Kinetic eigenvalue #  16 =     0.89240042E+01
Kinetic eigenvalue #  17 =     0.16012492E+02
 Calculating the R matrix for the precon Sinv operator
 Diagonalising expanded subspace
 Copying updated data back
eigenvalue    1 init= -80.00     fin= -80.00     change= 0.3267E-08
eigenvalue    2 init= -49.54     fin= -49.54     change= 0.2474E-07
eigenvalue    3 init= -49.09     fin= -49.09     change= 0.2175E-09
eigenvalue    4 init= -49.09     fin= -49.09     change= 0.1467E-09
eigenvalue    5 init= -19.80     fin= -19.80     change= 0.3143E-04
eigenvalue    6 init= -6.733     fin= -6.733     change= 0.1484E-03
eigenvalue    7 init= -5.996     fin= -5.996     change= 0.1995E-04
eigenvalue    8 init= -5.932     fin= -5.932     change= 0.1208E-04
 Checking convergence criteria
 Diagonalising expanded subspace
 Copying updated data back
eigenvalue    1 init= -80.00     fin= -80.00     change= 0.3333E-08
eigenvalue    2 init= -49.54     fin= -49.54     change= 0.2604E-07
eigenvalue    3 init= -49.09     fin= -49.09     change= 0.2190E-09
eigenvalue    4 init= -49.09     fin= -49.09     change= 0.1473E-09
eigenvalue    5 init= -19.80     fin= -19.80     change= 0.3322E-04
eigenvalue    6 init= -6.733     fin= -6.733     change= 0.1607E-03
eigenvalue    7 init= -5.996     fin= -5.996     change= 0.2120E-04
eigenvalue    8 init= -5.932     fin= -5.932     change= 0.1263E-04
 Checking convergence criteria
 Diagonalising expanded subspace
 Copying updated data back
eigenvalue    9 init= -2.683     fin= -2.683     change= 0.1219E-03
eigenvalue   10 init= -2.387     fin= -2.387     change= 0.1373E-03
eigenvalue   11 init= -2.368     fin= -2.368     change= 0.6122E-04
eigenvalue   12 init= -1.425     fin= -1.425     change= 0.8640E-04
eigenvalue   13 init= -1.252     fin= -1.252     change= 0.2815E-04
eigenvalue   14 init= -.5376     fin= -.5379     change= 0.2637E-03
eigenvalue   15 init=  1.200     fin=  1.200     change= 0.4958E-05
eigenvalue   16 init=  2.522     fin=  2.522     change= 0.4742E-04
 Checking convergence criteria
 Diagonalising expanded subspace
 Copying updated data back
eigenvalue    9 init= -2.683     fin= -2.683     change= 0.1325E-03
eigenvalue   10 init= -2.387     fin= -2.387     change= 0.1521E-03
eigenvalue   11 init= -2.368     fin= -2.368     change= 0.6428E-04
eigenvalue   12 init= -1.425     fin= -1.425     change= 0.9762E-04
eigenvalue   13 init= -1.252     fin= -1.252     change= 0.3031E-04
eigenvalue   14 init= -.5376     fin= -.5379     change= 0.3033E-03
eigenvalue   15 init=  1.200     fin=  1.200     change= 0.6099E-05
eigenvalue   16 init=  2.522     fin=  2.522     change= 0.6358E-04
 Checking convergence criteria
 Diagonalising expanded subspace
 Copying updated data back
eigenvalue    9 init= -2.683     fin= -2.683     change= 0.1329E-03
eigenvalue   10 init= -2.387     fin= -2.387     change= 0.1527E-03
eigenvalue   11 init= -2.368     fin= -2.368     change= 0.6428E-04
eigenvalue   12 init= -1.425     fin= -1.425     change= 0.9837E-04
eigenvalue   13 init= -1.252     fin= -1.252     change= 0.3033E-04
eigenvalue   14 init= -.5376     fin= -.5379     change= 0.3064E-03
eigenvalue   15 init=  1.200     fin=  1.200     change= 0.6153E-05
eigenvalue   16 init=  2.522     fin=  2.522     change= 0.6641E-04
 Checking convergence criteria
 Diagonalising expanded subspace
 Copying updated data back
eigenvalue   17 init=  4.236     fin=  4.236     change= 0.6509E-06
 Checking convergence criteria
(Entering electronic_find_fermi_fix)
Smearing occupancies with Gaussians
Spin: 1, Min eigenvalue: -8.4755E+001 eV, Max eigenvalue:  3.4373E+000 eV
Fermi energy for up electrons = -3.2529E+000 eV [lower bound; range =  1.96E-014 eV]
Spin: 2, Min eigenvalue: -8.0796E+001 eV, Max eigenvalue:  5.0359E+000 eV
Fermi energy for down electrons = -3.2014E+000 eV [lower bound; range =  1.91E-014 eV]
(Leaving electronic_find_fermi_fix)
NB material has an apparent band gap of  1.4227E+000eV for spin up electrons.
NB material has an apparent band gap of  3.2495E+000eV for spin down electrons.
Calculating KE and non-local eigenvalues to find total energy
 
End of SCF cycle energies
Exchange-correlation energy      =      -499.07913191541501874 eV
+Hartree energy                  =      2055.86480228865912068 eV
+Local pseudopotential energy    =     -5072.04198973965321784 eV
----------------------------------
Potential energy (total)         =     -3518.79668982765042529 eV
                                  
+Hubbard U energy                =        -2.40000000000000036 eV
+Kinetic energy                  =       777.30430130875549821 eV
+Non-local energy                =       155.26391726054666265 eV
+Electronic entropy term (-TS)   =        -0.00125193818602645 eV
+Ewald energy (const)            =      -774.85607651874397561 eV
+non-Coulombic energy (const)    =        13.80612138473854067 eV
----------------------------------
Total free energy (E-TS)         =     -3349.67967833053944560 eV
 
NB est. 0K energy (E-0.5TS)      =     -3349.67905236144633818 eV
 
(XC correction to eigenvalue sum =        44.01690523340165129 eV)
(Hubbard U correction to eigenvalu         0.00000003000000000 eV)
 
      1  -3.34967968E+003 -3.23326812E+000  -4.29709702E-002      15.69  <-- SCF
 Calculate new overlap and Hubbard U matrix
 Density matrix in cubic harmonics:
     1.0000     0.0000     0.0000     0.0000     0.0000
     0.0000     0.0000     0.0000     0.0000     0.0000
     0.0000     0.0000     0.0000     0.0000     0.0000
     0.0000     0.0000     0.0000     0.0000     0.0000
     0.0000     0.0000     0.0000     0.0000     0.0000
     0.0000     0.0000     0.0000     0.0000     0.0000
     0.0000     0.0000     0.0000     1.0000     0.0000
     0.0000     0.0000     0.0000     0.0000     0.0000
     0.0000     0.0000     0.0000     0.0000     1.0000
     0.0000     0.0000     0.0000     0.0000     0.0000
 Hermiticity:        (-4.44089209850062616E-016,0.0000000000000000)
 Density matrix in cubic harmonics:
     1.0000     0.0000     0.0000     0.0000     0.0000
     0.0000     0.0000     0.0000     0.0000     0.0000
     0.0000     0.0000     0.0000     0.0000     0.0000
     0.0000     0.0000     0.0000     0.0000     0.0000
     0.0000     0.0000     0.0000     0.0000     0.0000
     0.0000     0.0000     0.0000     0.0000     0.0000
     0.0000     0.0000     0.0000     1.0000     0.0000
     0.0000     0.0000     0.0000     0.0000     0.0000
     0.0000     0.0000     0.0000     0.0000     1.0000
     0.0000     0.0000     0.0000     0.0000     0.0000
 Hermiticity:        (-4.44089209850062616E-016,0.0000000000000000)
 Density matrix in cubic harmonics:
     0.9509    -0.0000     0.0000     0.0847    -0.0000
     0.0000     0.0000     0.0000     0.0000     0.0000
    -0.0000     0.9997     0.0000     0.0000     0.0000
     0.0000     0.0000     0.0000     0.0000     0.0000
     0.0000     0.0000     0.9811    -0.0000     0.0000
     0.0000     0.0000     0.0000     0.0000     0.0000
     0.0847     0.0000    -0.0000     0.8531     0.0000
     0.0000     0.0000     0.0000     0.0000     0.0000
    -0.0000     0.0000     0.0000     0.0000     0.9811
     0.0000     0.0000     0.0000     0.0000     0.0000
 Hermiticity:              (0.19497179061762826,0.0000000000000000)
 Density matrix in cubic harmonics:
     0.0932    -0.0000     0.0000    -0.1612     0.0000
     0.0000     0.0000     0.0000     0.0000     0.0000
    -0.0000     0.0000     0.0000     0.0000    -0.0000
     0.0000     0.0000     0.0000     0.0000     0.0000
     0.0000     0.0000     0.3558    -0.0000     0.0000
     0.0000     0.0000     0.0000     0.0000     0.0000
    -0.1612     0.0000    -0.0000     0.2793    -0.0000
     0.0000     0.0000     0.0000     0.0000     0.0000
     0.0000    -0.0000     0.0000    -0.0000     0.3558
     0.0000     0.0000     0.0000     0.0000     0.0000
 Hermiticity:              (0.69224273697298178,0.0000000000000000)
  Hubbard energy diff=   5.9994306459673762E-002 eV <-- Hubbard_U
  ----------- Hubbard U: New occupation matrix calculated: --------------------
  -2.3400056935403266      eV <= Edirect

     Hubbard U occupation numbers
     ----------------------------
Species   Ion   l  spin               occupancies
==================================================================
  Mn       1    2   up:   0.80  0.98  0.98  1.00  1.00
                    dn:   0.00  0.00  0.36  0.36  0.37
==================================================================

 Only the high frequencies of the density were mixed in this cycle 
Symmetrising density
Calculating local potential
Calculating Hubbard U potential
 Density matrix in cubic harmonics:
     1.0000     0.0000     0.0000     0.0000     0.0000
     0.0000     0.0000     0.0000     0.0000     0.0000
     0.0000     0.0000     0.0000     0.0000     0.0000
     0.0000     0.0000     0.0000     0.0000     0.0000
     0.0000     0.0000     0.0000     0.0000     0.0000
     0.0000     0.0000     0.0000     0.0000     0.0000
     0.0000     0.0000     0.0000     1.0000     0.0000
     0.0000     0.0000     0.0000     0.0000     0.0000
     0.0000     0.0000     0.0000     0.0000     1.0000
     0.0000     0.0000     0.0000     0.0000     0.0000
 Hermiticity:        (-4.44089209850062616E-016,0.0000000000000000)
 Density matrix in cubic harmonics:
     1.0000     0.0000     0.0000     0.0000     0.0000
     0.0000     0.0000     0.0000     0.0000     0.0000
     0.0000     0.0000     0.0000     0.0000     0.0000
     0.0000     0.0000     0.0000     0.0000     0.0000
     0.0000     0.0000     0.0000     0.0000     0.0000
     0.0000     0.0000     0.0000     0.0000     0.0000
     0.0000     0.0000     0.0000     1.0000     0.0000
     0.0000     0.0000     0.0000     0.0000     0.0000
     0.0000     0.0000     0.0000     0.0000     1.0000
     0.0000     0.0000     0.0000     0.0000     0.0000
 Hermiticity:        (-4.44089209850062616E-016,0.0000000000000000)
Calculating non-local weights
Starting SCF cycle     2 of up to    30
 no. bands in each block=           8
Kinetic eigenvalue #   1 =     0.38349113E+02
Kinetic eigenvalue #   2 =     0.39990490E+02
Kinetic eigenvalue #   3 =     0.39990489E+02
Kinetic eigenvalue #   4 =     0.39595024E+02
Kinetic eigenvalue #   5 =     0.25154606E+02
Kinetic eigenvalue #   6 =     0.41857738E+02
Kinetic eigenvalue #   7 =     0.37251949E+02
Kinetic eigenvalue #   8 =     0.37265477E+02
Kinetic eigenvalue #   9 =     0.37904381E+02
Kinetic eigenvalue #  10 =     0.37465850E+02
Kinetic eigenvalue #  11 =     0.24326979E+02
Kinetic eigenvalue #  12 =     0.38652751E+02
Kinetic eigenvalue #  13 =     0.38749093E+02
Kinetic eigenvalue #  14 =     0.24190159E+02
Kinetic eigenvalue #  15 =     0.13503429E+02
Kinetic eigenvalue #  16 =     0.14102912E+02
Kinetic eigenvalue #  17 =     0.76928723E+01
 Diagonalising expanded subspace
 Copying updated data back
eigenvalue    1 init= -83.96     fin= -83.96     change= 0.1356E-08
eigenvalue    2 init= -53.14     fin= -53.14     change= 0.1500E-10
eigenvalue    3 init= -53.14     fin= -53.14     change= 0.1517E-10
eigenvalue    4 init= -52.98     fin= -52.98     change= 0.4749E-10
eigenvalue    5 init= -20.27     fin= -20.27     change= 0.9062E-07
eigenvalue    6 init= -7.825     fin= -7.825     change= 0.1105E-05
eigenvalue    7 init= -7.487     fin= -7.487     change= 0.2365E-06
eigenvalue    8 init= -7.487     fin= -7.487     change= 0.2964E-06
 Checking convergence criteria
 Diagonalising expanded subspace
 Copying updated data back
eigenvalue    1 init= -83.96     fin= -83.96     change= 0.1412E-08
eigenvalue    2 init= -53.14     fin= -53.14     change= 0.1506E-10
eigenvalue    3 init= -53.14     fin= -53.14     change= 0.1530E-10
eigenvalue    4 init= -52.98     fin= -52.98     change= 0.4922E-10
eigenvalue    5 init= -20.27     fin= -20.27     change= 0.1011E-06
eigenvalue    6 init= -7.825     fin= -7.825     change= 0.1398E-05
eigenvalue    7 init= -7.487     fin= -7.487     change= 0.2471E-06
eigenvalue    8 init= -7.487     fin= -7.487     change= 0.2967E-06
 Checking convergence criteria
 Diagonalising expanded subspace
 Copying updated data back
eigenvalue    9 init= -6.247     fin= -6.247     change= 0.2457E-07
eigenvalue   10 init= -6.083     fin= -6.083     change= 0.1715E-07
eigenvalue   11 init= -4.331     fin= -4.331     change= 0.9715E-06
eigenvalue   12 init= -3.783     fin= -3.783     change= 0.1183E-06
eigenvalue   13 init= -3.755     fin= -3.755     change= 0.3358E-06
eigenvalue   14 init= -1.844     fin= -1.844     change= 0.1535E-05
eigenvalue   15 init= 0.2948     fin= 0.2948     change= 0.2700E-07
eigenvalue   16 init= 0.4244     fin= 0.4244     change= 0.5437E-07
 Checking convergence criteria
 Diagonalising expanded subspace
 Copying updated data back
eigenvalue    9 init= -6.247     fin= -6.247     change= 0.2457E-07
eigenvalue   10 init= -6.083     fin= -6.083     change= 0.1756E-07
eigenvalue   11 init= -4.331     fin= -4.331     change= 0.1238E-05
eigenvalue   12 init= -3.783     fin= -3.783     change= 0.1183E-06
eigenvalue   13 init= -3.755     fin= -3.755     change= 0.4020E-06
eigenvalue   14 init= -1.844     fin= -1.844     change= 0.2084E-05
eigenvalue   15 init= 0.2948     fin= 0.2948     change= 0.2794E-07
eigenvalue   16 init= 0.4244     fin= 0.4244     change= 0.5437E-07
 Checking convergence criteria
 Diagonalising expanded subspace
 Copying updated data back
eigenvalue   17 init=  2.637     fin=  2.637     change= 0.2180E-06
 Checking convergence criteria
 no. bands in each block=           8
Kinetic eigenvalue #   1 =     0.38349092E+02
Kinetic eigenvalue #   2 =     0.39990479E+02
Kinetic eigenvalue #   3 =     0.39990669E+02
Kinetic eigenvalue #   4 =     0.39595016E+02
Kinetic eigenvalue #   5 =     0.25142047E+02
Kinetic eigenvalue #   6 =     0.41781864E+02
Kinetic eigenvalue #   7 =     0.37199041E+02
Kinetic eigenvalue #   8 =     0.37612974E+02
Kinetic eigenvalue #   9 =     0.37494433E+02
Kinetic eigenvalue #  10 =     0.37730839E+02
Kinetic eigenvalue #  11 =     0.21213481E+02
Kinetic eigenvalue #  12 =     0.37895607E+02
Kinetic eigenvalue #  13 =     0.41414466E+02
Kinetic eigenvalue #  14 =     0.25085889E+02
Kinetic eigenvalue #  15 =     0.13346529E+02
Kinetic eigenvalue #  16 =     0.79701205E+01
Kinetic eigenvalue #  17 =     0.17056440E+02
 Diagonalising expanded subspace
 Copying updated data back
eigenvalue    1 init= -83.96     fin= -83.96     change= 0.1434E-08
eigenvalue    2 init= -53.14     fin= -53.14     change= 0.1467E-10
eigenvalue    3 init= -53.14     fin= -53.14     change= 0.1416E-10
eigenvalue    4 init= -52.98     fin= -52.98     change= 0.4127E-10
eigenvalue    5 init= -20.27     fin= -20.27     change= 0.7050E-07
eigenvalue    6 init= -7.831     fin= -7.831     change= 0.8299E-06
eigenvalue    7 init= -7.491     fin= -7.491     change= 0.2897E-06
eigenvalue    8 init= -7.457     fin= -7.457     change= 0.1264E-06
 Checking convergence criteria
 Diagonalising expanded subspace
 Copying updated data back
eigenvalue    9 init= -6.283     fin= -6.283     change= 0.5660E-07
eigenvalue   10 init= -6.062     fin= -6.062     change= 0.8461E-08
eigenvalue   11 init= -4.574     fin= -4.574     change= 0.3081E-06
eigenvalue   12 init= -3.802     fin= -3.802     change= 0.3285E-06
eigenvalue   13 init= -3.655     fin= -3.655     change= 0.9496E-07
eigenvalue   14 init= -2.044     fin= -2.044     change= 0.5287E-06
eigenvalue   15 init= -.7284E-01 fin= -.7284E-01 change= 0.5721E-07
eigenvalue   16 init=  2.018     fin=  2.018     change= 0.2174E-06
 Checking convergence criteria
 Diagonalising expanded subspace
 Copying updated data back
eigenvalue   17 init=  2.479     fin=  2.479     change= 0.6149E-07
 Checking convergence criteria
 no. bands in each block=           8
Kinetic eigenvalue #   1 =     0.38349101E+02
Kinetic eigenvalue #   2 =     0.39990479E+02
Kinetic eigenvalue #   3 =     0.39990669E+02
Kinetic eigenvalue #   4 =     0.39595016E+02
Kinetic eigenvalue #   5 =     0.25142062E+02
Kinetic eigenvalue #   6 =     0.41781942E+02
Kinetic eigenvalue #   7 =     0.37199068E+02
Kinetic eigenvalue #   8 =     0.37613001E+02
Kinetic eigenvalue #   9 =     0.37494468E+02
Kinetic eigenvalue #  10 =     0.37730839E+02
Kinetic eigenvalue #  11 =     0.21213417E+02
Kinetic eigenvalue #  12 =     0.37895357E+02
Kinetic eigenvalue #  13 =     0.41414404E+02
Kinetic eigenvalue #  14 =     0.25085722E+02
Kinetic eigenvalue #  15 =     0.13346424E+02
Kinetic eigenvalue #  16 =     0.79700381E+01
Kinetic eigenvalue #  17 =     0.17055133E+02
 Diagonalising expanded subspace
 Copying updated data back
eigenvalue    1 init= -83.96     fin= -83.96     change= 0.1364E-08
eigenvalue    2 init= -53.14     fin= -53.14     change= 0.1463E-10
eigenvalue    3 init= -53.14     fin= -53.14     change= 0.1414E-10
eigenvalue    4 init= -52.98     fin= -52.98     change= 0.4118E-10
eigenvalue    5 init= -20.27     fin= -20.27     change= 0.6771E-07
eigenvalue    6 init= -7.831     fin= -7.831     change= 0.7836E-06
eigenvalue    7 init= -7.491     fin= -7.491     change= 0.2962E-06
eigenvalue    8 init= -7.457     fin= -7.457     change= 0.1306E-06
 Checking convergence criteria
 Diagonalising expanded subspace
 Copying updated data back
eigenvalue    9 init= -6.283     fin= -6.283     change= 0.5505E-07
eigenvalue   10 init= -6.062     fin= -6.062     change= 0.8460E-08
eigenvalue   11 init= -4.574     fin= -4.574     change= 0.2939E-06
eigenvalue   12 init= -3.802     fin= -3.802     change= 0.3559E-06
eigenvalue   13 init= -3.655     fin= -3.655     change= 0.1048E-06
eigenvalue   14 init= -2.044     fin= -2.044     change= 0.4928E-06
eigenvalue   15 init= -.7284E-01 fin= -.7284E-01 change= 0.7012E-07
eigenvalue   16 init=  2.018     fin=  2.018     change= 0.2521E-06
 Checking convergence criteria
 Diagonalising expanded subspace
 Copying updated data back
eigenvalue   17 init=  2.479     fin=  2.479     change= 0.1667E-06
 Checking convergence criteria
 no. bands in each block=           8
Kinetic eigenvalue #   1 =     0.38349117E+02
Kinetic eigenvalue #   2 =     0.39990490E+02
Kinetic eigenvalue #   3 =     0.39990489E+02
Kinetic eigenvalue #   4 =     0.39595024E+02
Kinetic eigenvalue #   5 =     0.25154668E+02
Kinetic eigenvalue #   6 =     0.41857710E+02
Kinetic eigenvalue #   7 =     0.37251989E+02
Kinetic eigenvalue #   8 =     0.37265486E+02
Kinetic eigenvalue #   9 =     0.37904381E+02
Kinetic eigenvalue #  10 =     0.37465857E+02
Kinetic eigenvalue #  11 =     0.24327217E+02
Kinetic eigenvalue #  12 =     0.38652752E+02
Kinetic eigenvalue #  13 =     0.38749139E+02
Kinetic eigenvalue #  14 =     0.24190716E+02
[...]
Spin 1, kpoint ( 0.250000 -0.333333  0.333333 ) weight = 0.111111
+--------+-------------------+----------------+
|  Band  |   Eigenvalue      |    Occupancy   |                   <- occ
+--------+-------------------+----------------+                   <- occ
|     8  |   -.737937E+01    |   1.00000      |                   <- occ
|     9  |   -.599441E+01    |   1.00000      |                   <- occ
|    10  |   -.583345E+01    |   1.00000      |                   <- occ
|    11  |   -.421934E+01    |   1.00000      |                   <- occ
|    12  |   -.369286E+01    |  0.999950      |                   <- occ
|    13  |   -.366213E+01    |  0.999881      |                   <- occ
|    14  |   -.175503E+01    |   0.00000      |                   <- occ
|    15  |   0.341195E+00    |   0.00000      |                   <- occ
+--------+-------------------+----------------+                   <- occ
Spin 2, kpoint (-0.250000 -0.333333 -0.333333 ) weight = 0.111111
+--------+-------------------+----------------+
|  Band  |   Eigenvalue      |    Occupancy   |                   <- occ
+--------+-------------------+----------------+                   <- occ
|     8  |   -.594403E+01    |   1.00000      |                   <- occ
|     9  |   -.233955E+01    |  0.686309E-08  |                   <- occ
|    10  |   -.222287E+01    |  0.396804E-10  |                   <- occ
|    11  |   -.196541E+01    |   0.00000      |                   <- occ
|    12  |   -.123226E+01    |   0.00000      |                   <- occ
|    13  |   -.119947E+01    |   0.00000      |                   <- occ
|    14  |   -.230771E+00    |   0.00000      |                   <- occ
|    15  |   0.164508E+01    |   0.00000      |                   <- occ
+--------+-------------------+----------------+                   <- occ
Spin 2, kpoint (-0.250000  0.000000 -0.333333 ) weight = 0.111111
+--------+-------------------+----------------+
|  Band  |   Eigenvalue      |    Occupancy   |                   <- occ
+--------+-------------------+----------------+                   <- occ
|     8  |   -.588876E+01    |   1.00000      |                   <- occ
|     9  |   -.251572E+01    |  0.468860E-05  |                   <- occ
|    10  |   -.224653E+01    |  0.119040E-09  |                   <- occ
|    11  |   -.216084E+01    |  0.195433E-11  |                   <- occ
|    12  |   -.126892E+01    |   0.00000      |                   <- occ
|    13  |   -.108734E+01    |   0.00000      |                   <- occ
|    14  |   -.437840E+00    |   0.00000      |                   <- occ
|    15  |   0.124804E+01    |   0.00000      |                   <- occ
+--------+-------------------+----------------+                   <- occ
Spin 2, kpoint (-0.250000  0.000000  0.333333 ) weight = 0.111111
+--------+-------------------+----------------+
|  Band  |   Eigenvalue      |    Occupancy   |                   <- occ
+--------+-------------------+----------------+                   <- occ
|     8  |   -.588876E+01    |   1.00000      |                   <- occ
|     9  |   -.251572E+01    |  0.468860E-05  |                   <- occ
|    10  |   -.224653E+01    |  0.119040E-09  |                   <- occ
|    11  |   -.216084E+01    |  0.195433E-11  |                   <- occ
|    12  |   -.126892E+01    |   0.00000      |                   <- occ
|    13  |   -.108734E+01    |   0.00000      |                   <- occ
|    14  |   -.437840E+00    |   0.00000      |                   <- occ
|    15  |   0.124804E+01    |   0.00000      |                   <- occ
+--------+-------------------+----------------+                   <- occ
Spin 2, kpoint (-0.250000  0.333333  0.333333 ) weight = 0.111111
+--------+-------------------+----------------+
|  Band  |   Eigenvalue      |    Occupancy   |                   <- occ
+--------+-------------------+----------------+                   <- occ
|     8  |   -.594403E+01    |   1.00000      |                   <- occ
|     9  |   -.233955E+01    |  0.686309E-08  |                   <- occ
|    10  |   -.222287E+01    |  0.396804E-10  |                   <- occ
|    11  |   -.196541E+01    |   0.00000      |                   <- occ
|    12  |   -.123226E+01    |   0.00000      |                   <- occ
|    13  |   -.119947E+01    |   0.00000      |                   <- occ
|    14  |   -.230771E+00    |   0.00000      |                   <- occ
|    15  |   0.164508E+01    |   0.00000      |                   <- occ
+--------+-------------------+----------------+                   <- occ
Spin 2, kpoint ( 0.250000  0.333333  0.000000 ) weight = 0.111111
+--------+-------------------+----------------+
|  Band  |   Eigenvalue      |    Occupancy   |                   <- occ
+--------+-------------------+----------------+                   <- occ
|     8  |   -.588876E+01    |   1.00000      |                   <- occ
|     9  |   -.251572E+01    |  0.468857E-05  |                   <- occ
|    10  |   -.224653E+01    |  0.119041E-09  |                   <- occ
|    11  |   -.216084E+01    |  0.195433E-11  |                   <- occ
|    12  |   -.126892E+01    |   0.00000      |                   <- occ
|    13  |   -.108734E+01    |   0.00000      |                   <- occ
|    14  |   -.437840E+00    |   0.00000      |                   <- occ
|    15  |   0.124804E+01    |   0.00000      |                   <- occ
+--------+-------------------+----------------+                   <- occ
Spin 2, kpoint (-0.250000 -0.333333  0.333333 ) weight = 0.111111
+--------+-------------------+----------------+
|  Band  |   Eigenvalue      |    Occupancy   |                   <- occ
+--------+-------------------+----------------+                   <- occ
|     8  |   -.594403E+01    |   1.00000      |                   <- occ
|     9  |   -.233955E+01    |  0.686309E-08  |                   <- occ
|    10  |   -.222287E+01    |  0.396803E-10  |                   <- occ
|    11  |   -.196541E+01    |   0.00000      |                   <- occ
|    12  |   -.123226E+01    |   0.00000      |                   <- occ
|    13  |   -.119947E+01    |   0.00000      |                   <- occ
|    14  |   -.230771E+00    |   0.00000      |                   <- occ
|    15  |   0.164508E+01    |   0.00000      |                   <- occ
+--------+-------------------+----------------+                   <- occ
Spin 2, kpoint (-0.250000  0.000000  0.000000 ) weight = 0.111111
+--------+-------------------+----------------+
|  Band  |   Eigenvalue      |    Occupancy   |                   <- occ
+--------+-------------------+----------------+                   <- occ
|     8  |   -.589301E+01    |   1.00000      |                   <- occ
|     9  |   -.280080E+01    |  0.786299E-02  |                   <- occ
|    10  |   -.246199E+01    |  0.751114E-06  |                   <- occ
|    11  |   -.212800E+01    |  0.367928E-12  |                   <- occ
|    12  |   -.110061E+01    |   0.00000      |                   <- occ
|    13  |   -.110061E+01    |   0.00000      |                   <- occ
|    14  |   -.648903E+00    |   0.00000      |                   <- occ
|    15  |   0.190831E+01    |   0.00000      |                   <- occ
+--------+-------------------+----------------+                   <- occ
Spin 2, kpoint (-0.250000  0.333333  0.000000 ) weight = 0.111111
+--------+-------------------+----------------+
|  Band  |   Eigenvalue      |    Occupancy   |                   <- occ
+--------+-------------------+----------------+                   <- occ
|     8  |   -.588876E+01    |   1.00000      |                   <- occ
|     9  |   -.251572E+01    |  0.468857E-05  |                   <- occ
|    10  |   -.224653E+01    |  0.119041E-09  |                   <- occ
|    11  |   -.216084E+01    |  0.195433E-11  |                   <- occ
|    12  |   -.126892E+01    |   0.00000      |                   <- occ
|    13  |   -.108734E+01    |   0.00000      |                   <- occ
|    14  |   -.437840E+00    |   0.00000      |                   <- occ
|    15  |   0.124804E+01    |   0.00000      |                   <- occ
+--------+-------------------+----------------+                   <- occ
Spin 2, kpoint ( 0.250000 -0.333333  0.333333 ) weight = 0.111111
+--------+-------------------+----------------+
|  Band  |   Eigenvalue      |    Occupancy   |                   <- occ
+--------+-------------------+----------------+                   <- occ
|     8  |   -.594403E+01    |   1.00000      |                   <- occ
|     9  |   -.233955E+01    |  0.686309E-08  |                   <- occ
|    10  |   -.222287E+01    |  0.396803E-10  |                   <- occ
|    11  |   -.196541E+01    |   0.00000      |                   <- occ
|    12  |   -.123226E+01    |   0.00000      |                   <- occ
|    13  |   -.119947E+01    |   0.00000      |                   <- occ
|    14  |   -.230771E+00    |   0.00000      |                   <- occ
|    15  |   0.164508E+01    |   0.00000      |                   <- occ
+--------+-------------------+----------------+                   <- occ
  achieved Hubbard U energy convergence:   1.4808766151536146E-006
Have a nice day.

Writing analysis data to MnO.castep_bin

Writing model to MnO.check
                            Ewald force:
Species #   1 Atom #   1 Fx: 483.919     Fy:0.185030E-13 Fz:0.185420E-13 eV/A
Species #   2 Atom #   1 Fx:-483.919     Fy:-.184017E-13 Fz:-.185483E-13 eV/A

 Pseudo atomic calculation performed for O 2s2 2p4

 Converged in 24 iterations to a total energy of -431.0932 eV

 Pseudo atomic calculation performed for Mn 3s2 3p6 3d5 4s2

 Converged in 38 iterations to a total energy of -2902.3718 eV
  Accepting available Hubbard U occ matrix: 

     Hubbard U occupation numbers
     ----------------------------
Species   Ion   l  spin               occupancies
==================================================================
  Mn       1    2   up:   0.79  0.98  0.98  1.00  1.00
                    dn:  -0.00  0.00  0.34  0.34  0.36
==================================================================

 Density matrix in cubic harmonics:
     0.9468     0.0000     0.0000     0.0916     0.0000
     0.0000     0.0000     0.0000     0.0000     0.0000
     0.0000     0.9995     0.0000    -0.0000    -0.0000
     0.0000     0.0000     0.0000     0.0000     0.0000
     0.0000     0.0000     0.9797    -0.0000    -0.0000
     0.0000     0.0000     0.0000     0.0000     0.0000
     0.0916    -0.0000    -0.0000     0.8411    -0.0000
     0.0000     0.0000     0.0000     0.0000     0.0000
     0.0000    -0.0000    -0.0000    -0.0000     0.9797
     0.0000     0.0000     0.0000     0.0000     0.0000
 Hermiticity:              (0.20757861534085253,0.0000000000000000)
 Density matrix in cubic harmonics:
     0.0897     0.0000    -0.0000    -0.1552    -0.0000
     0.0000     0.0000     0.0000     0.0000     0.0000
     0.0000     0.0000     0.0000    -0.0000    -0.0000
     0.0000     0.0000     0.0000     0.0000     0.0000
    -0.0000     0.0000     0.3358     0.0000    -0.0000
     0.0000     0.0000     0.0000     0.0000     0.0000
    -0.1552    -0.0000     0.0000     0.2688     0.0000
     0.0000     0.0000     0.0000     0.0000     0.0000
    -0.0000    -0.0000    -0.0000     0.0000     0.3358
     0.0000     0.0000     0.0000     0.0000     0.0000
 Hermiticity:              (0.67613669839645274,0.0000000000000000)
Hubbard U energy: Ha   =   -0.084918691312
Hubbard U forces Ha/A    1     7.747877115931    4.724315314592    4.724315314592    0.000000000001   -0.000000000000    0.000000000000
Hubbard U forces Ha/A    2     4.724315314592    4.724315314592    4.724315314592   -0.000000000039    0.000000000000   -0.000000000000
  achieved Hubbard U energy convergence:   7.3498644949913272E-007

 *********************** Ewald forces ***********************
 *                                                          *
 *               Cartesian components (eV/A)                *
 * -------------------------------------------------------- *
 *                         x            y            z      *
 *                                                          *
 * O               1    483.91934      0.00000      0.00000 *
 * Mn              1   -483.91934     -0.00000     -0.00000 *
 *                                                          *
 ************************************************************

 ****************** Local potential forces ******************
 *                                                          *
 *               Cartesian components (eV/A)                *
 * -------------------------------------------------------- *
 *                         x            y            z      *
 *                                                          *
 * O               1   -453.45967      0.00000      0.00000 *
 * Mn              1    495.83005     -0.00000     -0.00000 *
 *                                                          *
 ************************************************************

 **************** Non-local potential forces ****************
 *                                                          *
 *               Cartesian components (eV/A)                *
 * -------------------------------------------------------- *
 *                         x            y            z      *
 *                                                          *
 * O               1    -30.49879     -0.00000     -0.00000 *
 * Mn              1    -13.46087     -0.00000     -0.00000 *
 *                                                          *
 ************************************************************

 ************** External Efield and/or dipole ***************
 *                                                          *
 *               Cartesian components (eV/A)                *
 * -------------------------------------------------------- *
 *                         x            y            z      *
 *                                                          *
 * O               1      0.00000      0.00000      0.00000 *
 * Mn              1      0.00000      0.00000      0.00000 *
 *                                                          *
 ************************************************************

 ***************** DM correction to forces ******************
 *                                                          *
 *               Cartesian components (eV/A)                *
 * -------------------------------------------------------- *
 *                         x            y            z      *
 *                                                          *
 * O               1      0.00000      0.00000      0.00000 *
 * Mn              1      0.00000      0.00000      0.00000 *
 *                                                          *
 ************************************************************

 ***************** Hubbard potential forces *****************
 *                                                          *
 *               Cartesian components (eV/A)                *
 * -------------------------------------------------------- *
 *                         x            y            z      *
 *                                                          *
 * O               1      0.00000     -0.00000      0.00000 *
 * Mn              1     -0.00000      0.00000     -0.00000 *
 *                                                          *
 ************************************************************

 ************************** Forces **************************
 *                                                          *
 *               Cartesian components (eV/A)                *
 * -------------------------------------------------------- *
 *                         x            y            z      *
 *                                                          *
 * O               1      0.75552     -0.00000      0.00000 *
 * Mn              1     -0.75552      0.00000     -0.00000 *
 *                                                          *
 ************************************************************

 Pseudo atomic calculation performed for O 2s2 2p4

 Converged in 24 iterations to a total energy of -431.0932 eV

 Pseudo atomic calculation performed for Mn 3s2 3p6 3d5 4s2

 Converged in 38 iterations to a total energy of -2902.3718 eV
Charge spilling parameter for spin component 1 = 0.18%
Charge spilling parameter for spin component 2 = 0.19%

                   Orbital Populations                  
  ---------------------------------------------------------------
     Ion    Atom   Orbital              Up        Down      Spin
  ---------------------------------------------------------------
      O     1      S                    0.963     0.959     0.004
      O     1      Px                   0.681     0.728    -0.047
      O     1      Py                   0.906     0.713     0.192
      O     1      Pz                   0.906     0.713     0.193
     Mn     1      S                    0.999     1.000    -0.001
     Mn     1      Px                   0.998     0.998     0.000
     Mn     1      Py                   1.000     1.000     0.000
     Mn     1      Pz                   1.000     1.000     0.000
     Mn     1      Dzz                  0.930     0.069     0.861
     Mn     1      Dzy                  1.000     0.000     1.000
     Mn     1      Dzx                  0.972     0.267     0.705
     Mn     1      Dxx-yy               0.789     0.206     0.583
     Mn     1      Dxy                  0.972     0.267     0.705
     Mn     1      S                    0.595     0.019     0.577
     Mn     1      Px                   0.035     0.022     0.013
     Mn     1      Py                   0.126     0.020     0.106
     Mn     1      Pz                   0.126     0.020     0.106
  ---------------------------------------------------------------
                           Total:      12.999     8.001     4.998
  ---------------------------------------------------------------
The total projected populations are: spin up   12.999  -0.000, spin down    8.001  -0.000, total   21.000  -0.000

     Atomic Populations (Mulliken)
     -----------------------------
Species          Ion Spin      s      p      d      f     Total  Charge(e)   Spin(hbar/2)
=========================================================================================
  O               1   up:     0.96   2.49   0.00   0.00   3.46    -0.57        0.34
                  1   dn:     0.96   2.15   0.00   0.00   3.11
  Mn              1   up:     1.59   3.29   4.66   0.00   9.54     0.57        4.66
                  1   dn:     1.02   3.06   0.81   0.00   4.89
=========================================================================================

                 Bond                   Population        Spin       Length (A)
================================================================================
               O 1 -- Mn 1                   0.63        -0.04          1.60000
================================================================================


Writing analysis data to MnO.castep_bin

Writing model to MnO.check
Initialisation time =     13.27 s
Calculation time    =     18.03 s
Finalisation time   =      0.13 s
Total time          =     31.42 s
Peak Memory Use     = 519164 kB
  
Overall parallel efficiency rating: Good (78%)                                  
  
Data was distributed by:-
k-point (2-way); efficiency rating: Good (79%)                                  
  
Parallel notes:
1) Calculation only took 31.3 s, so efficiency estimates may be inaccurate.     
2) k-points were not fully distributed, there were 5 k-points per process.      
  
Efficiencies are estimated from the ratio of communication time to total time,
and do not include all the effects of serial operations or load imbalance.
