 +-------------------------------------------------+
 |                                                 |
 |      CCC   AA    SSS  TTTTT  EEEEE  PPPP        |
 |     C     A  A  S       T    E      P   P       |
 |     C     AAAA   SS     T    EEE    PPPP        |
 |     C     A  A     S    T    E      P           |
 |      CCC  A  A  SSS     T    EEEEE  P           |
 |                                                 |
 +-------------------------------------------------+
 |                                                 |
 | Welcome to Academic Release CASTEP version 19.11|          
 | Ab Initio Total Energy Program                  |
 |                                                 |
 | Authors:                                        |
 | M. Segall, M. Probert, C. Pickard, P. Hasnip,   |
 | S. Clark, K. Refson, J. R. Yates, M. Payne      |
 |                                                 |
 | Contributors:                                   |
 | P. Lindan, P. Haynes, J. White, V. Milman,      |
 | N. Govind, M. Gibson, P. Tulip, V. Cocula,      |
 | B. Montanari, D. Quigley, M. Glover,            |
 | L. Bernasconi, A. Perlov, M. Plummer,           |
 | E. McNellis, J. Meyer, J. Gale, D. Jochym       |
 | J. Aarons, B. Walker, R. Gillen, D. Jones       |
 | T. Green, I. J. Bush, C. J. Armstrong,          |
 | E. J. Higgins, E. L. Brown, M. S. McFly,        |
 | J. Wilkins, B-C. Shih, P. J. P. Byrne           |
 |                                                 |
 | Copyright (c) 2000 - 2018                       |
 |                                                 |
 |     Distributed under the terms of an           |
 |     Agreement between the United Kingdom        |
 |     Car-Parrinello (UKCP) Consortium,           |
 |     Daresbury Laboratory and Accelrys, Inc.     |
 |                                                 |
 | Please cite                                     |
 |                                                 |
 |     "First principles methods using CASTEP"     |
 |                                                 |
 |         Zeitschrift fuer Kristallographie       |
 |           220(5-6) pp. 567-570 (2005)           |
 |                                                 |
 | S. J. Clark, M. D. Segall, C. J. Pickard,       |
 | P. J. Hasnip, M. J. Probert, K. Refson,         |
 | M. C. Payne                                     |
 |                                                 |
 |       in all publications arising from          |
 |              your use of CASTEP                 |
 |                                                 |
 +-------------------------------------------------+
 |                                                 |
 |              http://www.castep.org              |
 |                                                 |
 +-------------------------------------------------+



 Compiled for linux_x86_64_gfortran7.0 on Mon, 30 Mar 2020 12:17:21 +0100
 from code version e1fe0d666396+ Castep191_branch Thu, 24 Oct 2019 13:54:03 +0100
 Compiler: GNU Fortran 7.5.0; Optimisation: fast
 MATHLIBS: Intel MKL(2019.0.5) (LAPACK version 3.7.0)
 FFT Lib : mkl
 Fundamental constants values: CODATA 2014

 Run started: Wed, 04 Nov 2020 19:31:04 +0000

 ******************************* User Parameters *******************************
iprint              : 3          # verbosity control (I)
reuse               : base.check # reuse filename (S)
writebib            : F          # output BibTeX references (L)
writeotfg           : F          # output OTFG files (L)
writecstesp         : F          # output cst_esp file (L)
spin                : 5.0000000  # net spin (R)
spinpolarised       : T          # spin polarised (L)
%block develcode    :            # developers code (B)
iprintu=8,
%endblock develcode :            # developers code (B)

 *******************************************************************************
  

 Atomic calculation performed for O: 1s2 2s2 2p4

 Converged in 60 iterations to an ae energy of -2027.926 eV


 Atomic calculation performed for Mn: 1s2 2s2 2p6 3s2 3p6 3d5 4s2

 Converged in 96 iterations to an ae energy of -31460.102 eV


 Pseudo atomic calculation performed for O 2s2 2p4

 Converged in 24 iterations to a total energy of -431.0932 eV

 Pseudo atomic calculation performed for Mn 3s2 3p6 3d5 4s2

 Converged in 38 iterations to a total energy of -2902.3718 eV
Initialising basis set.

Standard grid dimensions:  48  36  36
Fine grid dimensions:      48  36  36

Plane wave load balancing: max   5869 min   5847 average   5864
True cut-off energy of basis :  22.996
 Reusing data from model file base.check
 Number of symmetry ops  =           1

 ******************************* User Parameters *******************************
iprint              : 3          # verbosity control (I)
reuse               : base.check # reuse filename (S)
writebib            : F          # output BibTeX references (L)
writeotfg           : F          # output OTFG files (L)
writecstesp         : F          # output cst_esp file (L)
spin                : 5.0000000  # net spin (R)
spinpolarised       : T          # spin polarised (L)
%block develcode    :            # developers code (B)
iprintu=8,
%endblock develcode :            # developers code (B)

 *******************************************************************************
  

 Atomic calculation performed for O: 1s2 2s2 2p4

 Converged in 60 iterations to an ae energy of -2027.926 eV


 Atomic calculation performed for Mn: 1s2 2s2 2p6 3s2 3p6 3d5 4s2

 Converged in 96 iterations to an ae energy of -31460.102 eV


 Pseudo atomic calculation performed for O 2s2 2p4

 Converged in 24 iterations to a total energy of -431.0932 eV

 Pseudo atomic calculation performed for Mn 3s2 3p6 3d5 4s2

 Converged in 38 iterations to a total energy of -2902.3718 eV
Initialising basis set.

Standard grid dimensions:  48  36  36
Fine grid dimensions:      48  36  36

Plane wave load balancing: max   5869 min   5847 average   5864
True cut-off energy of basis :  22.996
K-point set unchanged, read in wavefunction.
Reusing density from model file.
 Calculation parallelised over 2 processes.
 Data is distributed by k-point(2-way)

 ************************************ Title ************************************
 

 ***************************** General Parameters ******************************
  
 output verbosity                               : extreme (3)
 reusing                                        : base.check
 write checkpoint data to                       : MnO.check
 type of calculation                            : single point energy
 stress calculation                             : off
 density difference calculation                 : off
 electron localisation func (ELF) calculation   : off
 Hirshfeld analysis                             : off
 unlimited duration calculation
 timing information                             : on
 memory usage estimate                          : on
 write extra output files                       : on
 write final potential to formatted file        : off
 write final density to formatted file          : off
 write BibTeX reference list                    : off
 write OTFG pseudopotential files               : off
 write electrostatic potential file             : off
 write bands file                               : on
 checkpoint writing                             : both castep_bin and check files
  
 output         length unit                     : A
 output           mass unit                     : amu
 output           time unit                     : ps
 output         charge unit                     : e
 output           spin unit                     : hbar/2
 output         energy unit                     : eV
 output          force unit                     : eV/A
 output       velocity unit                     : A/ps
 output       pressure unit                     : GPa
 output     inv_length unit                     : 1/A
 output      frequency unit                     : cm-1
 output force constant unit                     : eV/A**2
 output         volume unit                     : A**3
 output   IR intensity unit                     : (D/A)**2/amu
 output         dipole unit                     : D
 output         efield unit                     : eV/A/e
 output        entropy unit                     : J/mol/K
  
 wavefunctions paging                           : none
 random number generator seed                   : randomised (193111208)
 data distribution                              : optimal for this architecture
 optimization strategy                          : balance speed and memory

 *********************** Exchange-Correlation Parameters ***********************
  
 using functional                               : Local Density Approximation
 relativistic treatment                         : Koelling-Harmon
 DFT+D: Semi-empirical dispersion correction    : off

 ************************* Pseudopotential Parameters **************************
  
 pseudopotential representation                 : reciprocal space
 <beta|phi> representation                      : reciprocal space
 spin-orbit coupling                            : off

 **************************** Basis Set Parameters *****************************
  
 basis set accuracy                             : FINE
 plane wave basis set cut-off                   :   625.8619   eV
 size of standard grid                          :     1.7500
 size of   fine   gmax                          :    22.4293   1/A
 largest prime factor in FFT                    :          5
 finite basis set correction                    : none

 **************************** Electronic Parameters ****************************
  
 number of  electrons                           :  21.00    
 net charge of system                           :  0.000    
 net spin   of system                           :  5.000    
 number of  up  spins                           :  13.00    
 number of down spins                           :  8.000    
 treating system as spin-polarized
 number of bands                                :         17

 ********************* Electronic Minimization Parameters **********************
  
 Method: Treating system as metallic with density mixing treatment of electrons,
         and number of  SD  steps               :          1
         and number of  CG  steps               :          4
  
 total energy / atom convergence tol.           : 0.1000E-04   eV
 eigen-energy convergence tolerance             : 0.1000E-05   eV
 max force / atom convergence tol.              : ignored
 convergence tolerance window                   :          3   cycles
 max. number of SCF cycles                      :         30
 number of fixed-spin iterations                :         10
 smearing scheme                                : Gaussian
 smearing width                                 : 0.2000       eV
 Fermi energy convergence tolerance             : 0.2721E-13   eV
 periodic dipole correction                     : NONE

 ************************** Density Mixing Parameters **************************
  
 density-mixing scheme                          : Broyden
 max. length of mixing history                  :         20
 charge density mixing amplitude                : 0.8000    
   spin density mixing amplitude                :  2.000    
 charge density mixing g-vector                 :  1.500       1/A
   spin density mixing g-vector                 :  1.500       1/A

 *********************** Population Analysis Parameters ************************
  
 Population analysis with cutoff                :  3.000       A
 Population analysis output                     : summary and pdos components

 ******************************* Developer Code ********************************
  
 iprintu=8,

 *******************************************************************************
  

                           -------------------------------
                                      Unit Cell
                           -------------------------------
        Real Lattice(A)                      Reciprocal Lattice(1/A)
     6.6000000     0.0000000     0.0000000        0.951997774   0.000000000   0.000000000
     0.0000000     5.0000000     0.0000000        0.000000000   1.256637061   0.000000000
     0.0000000     0.0000000     5.0000000        0.000000000   0.000000000   1.256637061

                       Lattice parameters(A)       Cell Angles
                    a =      6.600000          alpha =   90.000000
                    b =      5.000000          beta  =   90.000000
                    c =      5.000000          gamma =   90.000000

                       Current cell volume =           165.000000       A**3
                                   density =             0.429924   AMU/A**3
                                           =             0.713905     g/cm^3

                           -------------------------------
                                     Cell Contents
                           -------------------------------
                         Total number of ions in cell =    2
                      Total number of species in cell =    2
                        Max number of any one species =    1

            xxxxxxxxxxxxxxxxxxxxxxxxxxxxxxxxxxxxxxxxxxxxxxxxxxxxxxxxxxxx
            x  Element    Atom        Fractional coordinates of atoms  x
            x            Number           u          v          w      x
            x----------------------------------------------------------x
            x  O            1         0.621212   0.500000   0.500000   x 
            x  Mn           1         0.378788   0.500000   0.500000   x 
            xxxxxxxxxxxxxxxxxxxxxxxxxxxxxxxxxxxxxxxxxxxxxxxxxxxxxxxxxxxx


                         No user defined ionic velocities

                           -------------------------------
                                   Details of Species
                           -------------------------------

                               Mass of species in AMU
                                    O   15.9994000
                                    Mn   54.9380500

                          Electric Quadrupole Moment (Barn)
                                    O   -0.0255800 Isotope 17
                                    Mn    0.3300000 Isotope 55


         Quantisation axis:    0.00000   0.00000   1.00000

         Units for Hubbard U values are eV
         xxxxxxxxxxxxxxxxxxxxxxxxxxxxxxxxxxxxxxxxxxxxxxxxxxxxxxxxxxxxxxxxxxxx
         |  Element     Atom     Hubbard U   values by orbital type         |
         |             Number      s          p          d          f       |
         |------------------------------------------------------------------|
         |O             1         0.00000    0.00000    0.00000    0.00000  |
         |Mn            1         0.00000    0.00000    0.00000    0.00000  |
         xxxxxxxxxxxxxxxxxxxxxxxxxxxxxxxxxxxxxxxxxxxxxxxxxxxxxxxxxxxxxxxxxxxx


                          Files used for pseudopotentials:
                                    O 2|1.1|17|20|23|20:21(qc=8)
                                    Mn 3|1.8|1.8|0.6|12|14|16|30U:40:31:32(qc=7)

                           -------------------------------
                              k-Points For BZ Sampling
                           -------------------------------
                       MP grid size for SCF calculation is  2  3  3
                            with an offset of   0.000  0.000  0.000
                       Number of kpoints used =             9

             +++++++++++++++++++++++++++++++++++++++++++++++++++++++
             +  Number       Fractional coordinates        Weight  +
             +-----------------------------------------------------+
             +     1  -0.250000  -0.333333  -0.333333   0.1111111  +
             +     2  -0.250000  -0.333333   0.333333   0.1111111  +
             +     3  -0.250000   0.000000  -0.333333   0.1111111  +
             +     4  -0.250000   0.000000   0.000000   0.1111111  +
             +     5  -0.250000   0.000000   0.333333   0.1111111  +
             +     6  -0.250000   0.333333   0.000000   0.1111111  +
             +     7  -0.250000   0.333333   0.333333   0.1111111  +
             +     8   0.250000  -0.333333   0.333333   0.1111111  +
             +     9   0.250000   0.333333   0.000000   0.1111111  +
             +++++++++++++++++++++++++++++++++++++++++++++++++++++++

                           -------------------------------
                               Symmetry and Constraints
                           -------------------------------

                      Maximum deviation from symmetry =  0.00000         ANG

                      Number of symmetry operations   =           1
                      Number of ionic constraints     =           3
                      Point group of crystal =     1: C1, 1, 1
                      Space group of crystal =    99: P4mm, P 4 -2

                    1 rotation    
                 (   1.00000000000   0.00000000000   0.00000000000 )
                 (   0.00000000000   1.00000000000   0.00000000000 )
                 (   0.00000000000   0.00000000000   1.00000000000 )
                    1 displacement
                 (   0.00000000000   0.00000000000   0.00000000000 )
                      symmetry related atoms: 
             O:    1
             Mn:    1


                         Centre of mass is constrained

            xxxxxxxxxxxxxxxxxxxxxxxxxxxxxxxxxxxxxxxxxxxxxxxxxxxxxxxxxxxxxx....
            x  Species       atom   co-ordinate  constraints.....         
            x-------------------------------------------------------------....
            x O                 1       x        29165.1220      0.0000      0.0000
            x O                 1       y            0.0000  29165.1220      0.0000
            x O                 1       z            0.0000      0.0000  29165.1220
            x Mn                1       x       100145.9388      0.0000      0.0000
            x Mn                1       y            0.0000 100145.9388      0.0000
            x Mn                1       z            0.0000      0.0000 100145.9388
            xxxxxxxxxxxxxxxxxxxxxxxxxxxxxxxxxxxxxxxxxxxxxxxxxxxxxxxxxxxxxx....

                         Number of cell constraints= 0
                         Cell constraints are:  1 2 3 4 5 6

                         External pressure/stress (GPa)
                          0.00000   0.00000   0.00000
                                    0.00000   0.00000
                                              0.00000
Density mixing plane wave load balancing: max      0 min      0 average      0
  
+---------------- MEMORY AND SCRATCH DISK ESTIMATES PER PROCESS --------------+
|                                                     Memory          Disk    |
| Baseline code, static data and system overhead      354.0 MB         0.0 MB |
| BLAS internal memory storage                          0.0 MB         0.0 MB |
| Model and support data                               67.2 MB       110.4 MB |
| Electronic energy minimisation requirements          51.6 MB         0.0 MB |
| Force calculation requirements                       13.8 MB         0.0 MB |
|                                               ----------------------------- |
| Approx. total storage required per process          472.8 MB       110.4 MB |
|                                                                             |
| Requirements will fluctuate during execution and may exceed these estimates |
+-----------------------------------------------------------------------------+
Calculating total energy with cut-off of  625.862 eV.
electronic_minimisation: Initialising

 Pseudo atomic calculation performed for O 2s2 2p4

 Converged in 24 iterations to a total energy of -431.0932 eV

 Pseudo atomic calculation performed for Mn 3s2 3p6 3d5 4s2

 Converged in 38 iterations to a total energy of -2902.3718 eV
  Initializing Hubbard U occ matrix: 

     Hubbard U occupation numbers
     ----------------------------
Species   Ion   l  spin               occupancies
==================================================================
  Mn       1    2   up:   0.00  0.00  1.00  1.00  1.00
                    dn:   0.00  0.00  1.00  1.00  1.00
==================================================================

electronic_minimisation: Initialising density mixing
 Initialising mixing density basis set.
Density mixing plane wave load balancing: max   5871 min   5871 average   5871
Calculating Ewald energy for ionic configuration
              Ewald: real-space energy =     359.826811 eV
        Ewald: reciprocal-space energy =      93.920754 eV
         Ewald: (sum_charge)**2 Energy =     459.468501 eV
         Ewald: (sum_charge**2) Energy =     769.135141 eV
                          Ewald Energy =    -774.856077 eV
Calculating non-Coulombic energy for ionic configuration
Symmetrising density
Calculating local potential
Calculating Hubbard U potential
 Density matrix in cubic harmonics:
     1.0000     0.0000     0.0000     0.0000     0.0000
     0.0000     0.0000     0.0000     0.0000     0.0000
     0.0000     0.0000     0.0000     0.0000     0.0000
     0.0000     0.0000     0.0000     0.0000     0.0000
     0.0000     0.0000     0.0000     0.0000     0.0000
     0.0000     0.0000     0.0000     0.0000     0.0000
     0.0000     0.0000     0.0000     1.0000     0.0000
     0.0000     0.0000     0.0000     0.0000     0.0000
     0.0000     0.0000     0.0000     0.0000     1.0000
     0.0000     0.0000     0.0000     0.0000     0.0000
 Hermiticity:        (-4.44089209850062616E-016,0.0000000000000000)
 Density matrix in cubic harmonics:
     1.0000     0.0000     0.0000     0.0000     0.0000
     0.0000     0.0000     0.0000     0.0000     0.0000
     0.0000     0.0000     0.0000     0.0000     0.0000
     0.0000     0.0000     0.0000     0.0000     0.0000
     0.0000     0.0000     0.0000     0.0000     0.0000
     0.0000     0.0000     0.0000     0.0000     0.0000
     0.0000     0.0000     0.0000     1.0000     0.0000
     0.0000     0.0000     0.0000     0.0000     0.0000
     0.0000     0.0000     0.0000     0.0000     1.0000
     0.0000     0.0000     0.0000     0.0000     0.0000
 Hermiticity:        (-4.44089209850062616E-016,0.0000000000000000)
Calculating non-local weights
Calculating KE and non-local eigenvalues to find total energy
 
Init
Exchange-correlation energy      =      -499.07913191541501874 eV
+Hartree energy                  =      2055.86480228865912068 eV
+Local pseudopotential energy    =     -5072.04198973965321784 eV
----------------------------------
Potential energy (total)         =     -3515.25631936638410480 eV
                                  
+Hubbard U energy                =        -0.47999999999999998 eV
+Kinetic energy                  =       776.91409201055114409 eV
+Non-local energy                =       152.02656221898419631 eV
+Electronic entropy term (-TS)   =         0.00000000000000000 eV
+Ewald energy (const)            =      -774.85607651874397561 eV
+non-Coulombic energy (const)    =        13.80612138473854067 eV
----------------------------------
Total free energy (E-TS)         =     -3347.84562027085348745 eV
 
NB est. 0K energy (E-0.5TS)      =     -3347.84562027085348745 eV
 
(XC correction to eigenvalue sum =        44.01690523340165129 eV)
(Hubbard U correction to eigenvalu         0.00000003000000000 eV)
 
------------------------------------------------------------------------ <-- SCF
SCF loop      Energy           Fermi           Energy gain       Timer   <-- SCF
                               energy          per atom          (sec)   <-- SCF
------------------------------------------------------------------------ <-- SCF
Initial  -3.34784562E+003  0.00000000E+000                        14.81  <-- SCF
Starting SCF cycle     1 of up to    30
 no. bands in each block=           8
Kinetic eigenvalue #   1 =     0.38348966E+02
Kinetic eigenvalue #   2 =     0.39990483E+02
Kinetic eigenvalue #   3 =     0.39990481E+02
Kinetic eigenvalue #   4 =     0.39595183E+02
Kinetic eigenvalue #   5 =     0.25112526E+02
Kinetic eigenvalue #   6 =     0.42186730E+02
Kinetic eigenvalue #   7 =     0.37391956E+02
Kinetic eigenvalue #   8 =     0.37412407E+02
Kinetic eigenvalue #   9 =     0.37900587E+02
Kinetic eigenvalue #  10 =     0.37455926E+02
Kinetic eigenvalue #  11 =     0.23372304E+02
Kinetic eigenvalue #  12 =     0.38336692E+02
Kinetic eigenvalue #  13 =     0.38452582E+02
Kinetic eigenvalue #  14 =     0.24719286E+02
Kinetic eigenvalue #  15 =     0.13655775E+02
Kinetic eigenvalue #  16 =     0.14273377E+02
Kinetic eigenvalue #  17 =     0.77296045E+01
 Calculating the R matrix for the precon Sinv operator
 Diagonalising expanded subspace
 Copying updated data back
eigenvalue    1 init= -83.96     fin= -83.96     change= 0.2189E-08
eigenvalue    2 init= -53.14     fin= -53.14     change= 0.4335E-10
eigenvalue    3 init= -53.14     fin= -53.14     change= 0.4136E-10
eigenvalue    4 init= -52.98     fin= -52.98     change= 0.3585E-09
eigenvalue    5 init= -20.23     fin= -20.23     change= 0.7082E-06
eigenvalue    6 init= -7.679     fin= -7.679     change= 0.5045E-05
eigenvalue    7 init= -7.279     fin= -7.279     change= 0.9690E-06
eigenvalue    8 init= -7.278     fin= -7.278     change= 0.9910E-06
 Checking convergence criteria
 Diagonalising expanded subspace
 Copying updated data back
eigenvalue    1 init= -83.96     fin= -83.96     change= 0.2204E-08
eigenvalue    2 init= -53.14     fin= -53.14     change= 0.4339E-10
eigenvalue    3 init= -53.14     fin= -53.14     change= 0.4136E-10
eigenvalue    4 init= -52.98     fin= -52.98     change= 0.3655E-09
eigenvalue    5 init= -20.23     fin= -20.23     change= 0.7356E-06
eigenvalue    6 init= -7.679     fin= -7.679     change= 0.5373E-05
eigenvalue    7 init= -7.279     fin= -7.279     change= 0.9695E-06
eigenvalue    8 init= -7.278     fin= -7.278     change= 0.9911E-06
 Checking convergence criteria
 Diagonalising expanded subspace
 Copying updated data back
eigenvalue    9 init= -5.929     fin= -5.929     change= 0.2314E-07
eigenvalue   10 init= -5.762     fin= -5.762     change= 0.1119E-06
eigenvalue   11 init= -4.257     fin= -4.257     change= 0.3039E-05
eigenvalue   12 init= -3.678     fin= -3.678     change= 0.6967E-06
eigenvalue   13 init= -3.650     fin= -3.650     change= 0.1255E-05
eigenvalue   14 init= -1.795     fin= -1.795     change= 0.2909E-05
eigenvalue   15 init= 0.2998     fin= 0.2998     change= 0.1146E-06
eigenvalue   16 init= 0.4299     fin= 0.4299     change= 0.7302E-07
 Checking convergence criteria
 Diagonalising expanded subspace
 Copying updated data back
eigenvalue    9 init= -5.929     fin= -5.929     change= 0.2314E-07
eigenvalue   10 init= -5.762     fin= -5.762     change= 0.1151E-06
eigenvalue   11 init= -4.257     fin= -4.257     change= 0.3341E-05
eigenvalue   12 init= -3.678     fin= -3.678     change= 0.6967E-06
eigenvalue   13 init= -3.650     fin= -3.650     change= 0.1389E-05
eigenvalue   14 init= -1.795     fin= -1.795     change= 0.3300E-05
eigenvalue   15 init= 0.2998     fin= 0.2998     change= 0.1350E-06
eigenvalue   16 init= 0.4299     fin= 0.4299     change= 0.7302E-07
 Checking convergence criteria
 Diagonalising expanded subspace
 Copying updated data back
eigenvalue   17 init=  2.640     fin=  2.640     change= 0.2121E-06
 Checking convergence criteria
 no. bands in each block=           8
Kinetic eigenvalue #   1 =     0.38348939E+02
Kinetic eigenvalue #   2 =     0.39990472E+02
Kinetic eigenvalue #   3 =     0.39990660E+02
Kinetic eigenvalue #   4 =     0.39595175E+02
Kinetic eigenvalue #   5 =     0.25099043E+02
Kinetic eigenvalue #   6 =     0.42122292E+02
Kinetic eigenvalue #   7 =     0.37333011E+02
Kinetic eigenvalue #   8 =     0.37797759E+02
Kinetic eigenvalue #   9 =     0.37459158E+02
Kinetic eigenvalue #  10 =     0.37726085E+02
Kinetic eigenvalue #  11 =     0.20289061E+02
Kinetic eigenvalue #  12 =     0.37545413E+02
Kinetic eigenvalue #  13 =     0.41168583E+02
Kinetic eigenvalue #  14 =     0.25570923E+02
Kinetic eigenvalue #  15 =     0.13556301E+02
Kinetic eigenvalue #  16 =     0.80528776E+01
Kinetic eigenvalue #  17 =     0.17119358E+02
 Calculating the R matrix for the precon Sinv operator
 Diagonalising expanded subspace
 Copying updated data back
eigenvalue    1 init= -83.96     fin= -83.96     change= 0.2317E-08
eigenvalue    2 init= -53.14     fin= -53.14     change= 0.4205E-10
eigenvalue    3 init= -53.14     fin= -53.14     change= 0.4123E-10
eigenvalue    4 init= -52.98     fin= -52.98     change= 0.3283E-09
eigenvalue    5 init= -20.23     fin= -20.23     change= 0.6328E-06
eigenvalue    6 init= -7.683     fin= -7.683     change= 0.4568E-05
eigenvalue    7 init= -7.283     fin= -7.283     change= 0.1051E-05
eigenvalue    8 init= -7.248     fin= -7.248     change= 0.5383E-06
 Checking convergence criteria
 Diagonalising expanded subspace
 Copying updated data back
eigenvalue    1 init= -83.96     fin= -83.96     change= 0.2352E-08
eigenvalue    2 init= -53.14     fin= -53.14     change= 0.4211E-10
eigenvalue    3 init= -53.14     fin= -53.14     change= 0.4123E-10
eigenvalue    4 init= -52.98     fin= -52.98     change= 0.3354E-09
eigenvalue    5 init= -20.23     fin= -20.23     change= 0.6573E-06
eigenvalue    6 init= -7.683     fin= -7.683     change= 0.4876E-05
eigenvalue    7 init= -7.283     fin= -7.283     change= 0.1134E-05
eigenvalue    8 init= -7.248     fin= -7.248     change= 0.5386E-06
 Checking convergence criteria
 Diagonalising expanded subspace
 Copying updated data back
eigenvalue    9 init= -5.963     fin= -5.963     change= 0.3879E-07
eigenvalue   10 init= -5.742     fin= -5.742     change= 0.7591E-07
eigenvalue   11 init= -4.508     fin= -4.508     change= 0.2354E-05
eigenvalue   12 init= -3.697     fin= -3.697     change= 0.1068E-05
eigenvalue   13 init= -3.549     fin= -3.549     change= 0.3739E-06
eigenvalue   14 init= -1.988     fin= -1.988     change= 0.2807E-05
eigenvalue   15 init= -.6648E-01 fin= -.6648E-01 change= 0.8898E-07
eigenvalue   16 init=  2.023     fin=  2.023     change= 0.5496E-06
 Checking convergence criteria
 Diagonalising expanded subspace
 Copying updated data back
eigenvalue    9 init= -5.963     fin= -5.963     change= 0.3936E-07
eigenvalue   10 init= -5.742     fin= -5.742     change= 0.7591E-07
eigenvalue   11 init= -4.508     fin= -4.508     change= 0.2622E-05
eigenvalue   12 init= -3.697     fin= -3.697     change= 0.1199E-05
eigenvalue   13 init= -3.549     fin= -3.549     change= 0.3742E-06
eigenvalue   14 init= -1.988     fin= -1.988     change= 0.3255E-05
eigenvalue   15 init= -.6648E-01 fin= -.6648E-01 change= 0.1108E-06
eigenvalue   16 init=  2.023     fin=  2.023     change= 0.7723E-06
 Checking convergence criteria
 Diagonalising expanded subspace
 Copying updated data back
eigenvalue   17 init=  2.481     fin=  2.481     change= 0.2187E-07
 Checking convergence criteria
 no. bands in each block=           8
Kinetic eigenvalue #   1 =     0.38348954E+02
Kinetic eigenvalue #   2 =     0.39990472E+02
Kinetic eigenvalue #   3 =     0.39990660E+02
Kinetic eigenvalue #   4 =     0.39595175E+02
Kinetic eigenvalue #   5 =     0.25099043E+02
Kinetic eigenvalue #   6 =     0.42122290E+02
Kinetic eigenvalue #   7 =     0.37333009E+02
Kinetic eigenvalue #   8 =     0.37797753E+02
Kinetic eigenvalue #   9 =     0.37459157E+02
Kinetic eigenvalue #  10 =     0.37726085E+02
Kinetic eigenvalue #  11 =     0.20289048E+02
Kinetic eigenvalue #  12 =     0.37545412E+02
Kinetic eigenvalue #  13 =     0.41168606E+02
Kinetic eigenvalue #  14 =     0.25570897E+02
Kinetic eigenvalue #  15 =     0.13556246E+02
Kinetic eigenvalue #  16 =     0.80526225E+01
Kinetic eigenvalue #  17 =     0.17119021E+02
 Calculating the R matrix for the precon Sinv operator
 Diagonalising expanded subspace
 Copying updated data back
eigenvalue    1 init= -83.96     fin= -83.96     change= 0.2185E-08
eigenvalue    2 init= -53.14     fin= -53.14     change= 0.4192E-10
eigenvalue    3 init= -53.14     fin= -53.14     change= 0.4117E-10
eigenvalue    4 init= -52.98     fin= -52.98     change= 0.3274E-09
eigenvalue    5 init= -20.23     fin= -20.23     change= 0.6331E-06
eigenvalue    6 init= -7.683     fin= -7.683     change= 0.4576E-05
eigenvalue    7 init= -7.283     fin= -7.283     change= 0.1051E-05
eigenvalue    8 init= -7.248     fin= -7.248     change= 0.5374E-06
 Checking convergence criteria
 Diagonalising expanded subspace
 Copying updated data back
eigenvalue    1 init= -83.96     fin= -83.96     change= 0.2213E-08
eigenvalue    2 init= -53.14     fin= -53.14     change= 0.4198E-10
eigenvalue    3 init= -53.14     fin= -53.14     change= 0.4118E-10
eigenvalue    4 init= -52.98     fin= -52.98     change= 0.3346E-09
eigenvalue    5 init= -20.23     fin= -20.23     change= 0.6574E-06
eigenvalue    6 init= -7.683     fin= -7.683     change= 0.4882E-05
eigenvalue    7 init= -7.283     fin= -7.283     change= 0.1133E-05
eigenvalue    8 init= -7.248     fin= -7.248     change= 0.5375E-06
 Checking convergence criteria
 Diagonalising expanded subspace
 Copying updated data back
eigenvalue    9 init= -5.963     fin= -5.963     change= 0.3884E-07
eigenvalue   10 init= -5.742     fin= -5.742     change= 0.7597E-07
eigenvalue   11 init= -4.508     fin= -4.508     change= 0.2354E-05
eigenvalue   12 init= -3.697     fin= -3.697     change= 0.1066E-05
eigenvalue   13 init= -3.549     fin= -3.549     change= 0.3700E-06
eigenvalue   14 init= -1.988     fin= -1.988     change= 0.2803E-05
eigenvalue   15 init= -.6648E-01 fin= -.6648E-01 change= 0.8694E-07
eigenvalue   16 init=  2.023     fin=  2.023     change= 0.5130E-06
 Checking convergence criteria
 Diagonalising expanded subspace
 Copying updated data back
eigenvalue    9 init= -5.963     fin= -5.963     change= 0.3940E-07
eigenvalue   10 init= -5.742     fin= -5.742     change= 0.7597E-07
eigenvalue   11 init= -4.508     fin= -4.508     change= 0.2623E-05
eigenvalue   12 init= -3.697     fin= -3.697     change= 0.1194E-05
eigenvalue   13 init= -3.549     fin= -3.549     change= 0.3705E-06
eigenvalue   14 init= -1.988     fin= -1.988     change= 0.3246E-05
eigenvalue   15 init= -.6648E-01 fin= -.6648E-01 change= 0.1044E-06
eigenvalue   16 init=  2.023     fin=  2.023     change= 0.6824E-06
 Checking convergence criteria
 Diagonalising expanded subspace
 Copying updated data back
eigenvalue   17 init=  2.481     fin=  2.481     change= 0.6777E-07
 Checking convergence criteria
 no. bands in each block=           8
Kinetic eigenvalue #   1 =     0.38348971E+02
Kinetic eigenvalue #   2 =     0.39990483E+02
Kinetic eigenvalue #   3 =     0.39990481E+02
Kinetic eigenvalue #   4 =     0.39595183E+02
Kinetic eigenvalue #   5 =     0.25112526E+02
Kinetic eigenvalue #   6 =     0.42186747E+02
Kinetic eigenvalue #   7 =     0.37391950E+02
Kinetic eigenvalue #   8 =     0.37412406E+02
Kinetic eigenvalue #   9 =     0.37900587E+02
Kinetic eigenvalue #  10 =     0.37455932E+02
Kinetic eigenvalue #  11 =     0.23372275E+02
Kinetic eigenvalue #  12 =     0.38336693E+02
Kinetic eigenvalue #  13 =     0.38452615E+02
Kinetic eigenvalue #  14 =     0.24719402E+02
Kinetic eigenvalue #  15 =     0.13655755E+02
Kinetic eigenvalue #  16 =     0.14273376E+02
Kinetic eigenvalue #  17 =     0.77276904E+01
 Calculating the R matrix for the precon Sinv operator
 Diagonalising expanded subspace
 Copying updated data back
eigenvalue    1 init= -83.96     fin= -83.96     change= 0.2155E-08
eigenvalue    2 init= -53.14     fin= -53.14     change= 0.4312E-10
eigenvalue    3 init= -53.14     fin= -53.14     change= 0.4127E-10
eigenvalue    4 init= -52.98     fin= -52.98     change= 0.3592E-09
eigenvalue    5 init= -20.23     fin= -20.23     change= 0.7093E-06
eigenvalue    6 init= -7.679     fin= -7.679     change= 0.5063E-05
eigenvalue    7 init= -7.279     fin= -7.279     change= 0.9677E-06
eigenvalue    8 init= -7.278     fin= -7.278     change= 0.9906E-06
 Checking convergence criteria
 Diagonalising expanded subspace
 Copying updated data back
eigenvalue    1 init= -83.96     fin= -83.96     change= 0.2168E-08
eigenvalue    2 init= -53.14     fin= -53.14     change= 0.4317E-10
eigenvalue    3 init= -53.14     fin= -53.14     change= 0.4126E-10
eigenvalue    4 init= -52.98     fin= -52.98     change= 0.3663E-09
eigenvalue    5 init= -20.23     fin= -20.23     change= 0.7370E-06
eigenvalue    6 init= -7.679     fin= -7.679     change= 0.5395E-05
eigenvalue    7 init= -7.279     fin= -7.279     change= 0.9680E-06
eigenvalue    8 init= -7.278     fin= -7.278     change= 0.9906E-06
 Checking convergence criteria
 Diagonalising expanded subspace
 Copying updated data back
eigenvalue    9 init= -5.929     fin= -5.929     change= 0.2314E-07
eigenvalue   10 init= -5.762     fin= -5.762     change= 0.1115E-06
eigenvalue   11 init= -4.257     fin= -4.257     change= 0.3094E-05
eigenvalue   12 init= -3.678     fin= -3.678     change= 0.6966E-06
eigenvalue   13 init= -3.650     fin= -3.650     change= 0.1247E-05
eigenvalue   14 init= -1.795     fin= -1.795     change= 0.2924E-05
eigenvalue   15 init= 0.2998     fin= 0.2998     change= 0.1348E-06
eigenvalue   16 init= 0.4299     fin= 0.4299     change= 0.7313E-07
 Checking convergence criteria
 Diagonalising expanded subspace
 Copying updated data back
eigenvalue    9 init= -5.929     fin= -5.929     change= 0.2314E-07
eigenvalue   10 init= -5.762     fin= -5.762     change= 0.1146E-06
eigenvalue   11 init= -4.257     fin= -4.257     change= 0.3382E-05
eigenvalue   12 init= -3.678     fin= -3.678     change= 0.6966E-06
eigenvalue   13 init= -3.650     fin= -3.650     change= 0.1380E-05
eigenvalue   14 init= -1.795     fin= -1.795     change= 0.3290E-05
eigenvalue   15 init= 0.2998     fin= 0.2998     change= 0.1650E-06
eigenvalue   16 init= 0.4299     fin= 0.4299     change= 0.7314E-07
 Checking convergence criteria
 Diagonalising expanded subspace
 Copying updated data back
eigenvalue   17 init=  2.640     fin=  2.640     change= 0.1911E-06
 Checking convergence criteria
 no. bands in each block=           8
Kinetic eigenvalue #   1 =     0.38348960E+02
Kinetic eigenvalue #   2 =     0.39990472E+02
Kinetic eigenvalue #   3 =     0.39990660E+02
Kinetic eigenvalue #   4 =     0.39595175E+02
Kinetic eigenvalue #   5 =     0.25099043E+02
Kinetic eigenvalue #   6 =     0.42122289E+02
Kinetic eigenvalue #   7 =     0.37333012E+02
Kinetic eigenvalue #   8 =     0.37797753E+02
Kinetic eigenvalue #   9 =     0.37459155E+02
Kinetic eigenvalue #  10 =     0.37726085E+02
Kinetic eigenvalue #  11 =     0.20289011E+02
Kinetic eigenvalue #  12 =     0.37545438E+02
Kinetic eigenvalue #  13 =     0.41168603E+02
Kinetic eigenvalue #  14 =     0.25571076E+02
Kinetic eigenvalue #  15 =     0.13556085E+02
Kinetic eigenvalue #  16 =     0.80522571E+01
Kinetic eigenvalue #  17 =     0.17118951E+02
 Calculating the R matrix for the precon Sinv operator
 Diagonalising expanded subspace
 Copying updated data back
eigenvalue    1 init= -83.96     fin= -83.96     change= 0.2158E-08
eigenvalue    2 init= -53.14     fin= -53.14     change= 0.4165E-10
eigenvalue    3 init= -53.14     fin= -53.14     change= 0.4144E-10
eigenvalue    4 init= -52.98     fin= -52.98     change= 0.3279E-09
eigenvalue    5 init= -20.23     fin= -20.23     change= 0.6329E-06
eigenvalue    6 init= -7.683     fin= -7.683     change= 0.4575E-05
eigenvalue    7 init= -7.283     fin= -7.283     change= 0.1051E-05
eigenvalue    8 init= -7.248     fin= -7.248     change= 0.5375E-06
 Checking convergence criteria
 Diagonalising expanded subspace
 Copying updated data back
eigenvalue    1 init= -83.96     fin= -83.96     change= 0.2183E-08
eigenvalue    2 init= -53.14     fin= -53.14     change= 0.4172E-10
eigenvalue    3 init= -53.14     fin= -53.14     change= 0.4144E-10
eigenvalue    4 init= -52.98     fin= -52.98     change= 0.3351E-09
eigenvalue    5 init= -20.23     fin= -20.23     change= 0.6572E-06
eigenvalue    6 init= -7.683     fin= -7.683     change= 0.4881E-05
eigenvalue    7 init= -7.283     fin= -7.283     change= 0.1134E-05
eigenvalue    8 init= -7.248     fin= -7.248     change= 0.5375E-06
 Checking convergence criteria
 Diagonalising expanded subspace
 Copying updated data back
eigenvalue    9 init= -5.963     fin= -5.963     change= 0.3877E-07
eigenvalue   10 init= -5.742     fin= -5.742     change= 0.7589E-07
eigenvalue   11 init= -4.508     fin= -4.508     change= 0.2367E-05
eigenvalue   12 init= -3.697     fin= -3.697     change= 0.1057E-05
eigenvalue   13 init= -3.549     fin= -3.549     change= 0.3722E-06
eigenvalue   14 init= -1.988     fin= -1.988     change= 0.2763E-05
eigenvalue   15 init= -.6648E-01 fin= -.6648E-01 change= 0.9615E-07
eigenvalue   16 init=  2.023     fin=  2.023     change= 0.4795E-06
 Checking convergence criteria
 Diagonalising expanded subspace
 Copying updated data back
eigenvalue    9 init= -5.963     fin= -5.963     change= 0.3928E-07
eigenvalue   10 init= -5.742     fin= -5.742     change= 0.7589E-07
eigenvalue   11 init= -4.508     fin= -4.508     change= 0.2617E-05
eigenvalue   12 init= -3.697     fin= -3.697     change= 0.1184E-05
eigenvalue   13 init= -3.549     fin= -3.549     change= 0.3729E-06
eigenvalue   14 init= -1.988     fin= -1.988     change= 0.3145E-05
eigenvalue   15 init= -.6648E-01 fin= -.6648E-01 change= 0.1126E-06
eigenvalue   16 init=  2.023     fin=  2.023     change= 0.6134E-06
 Checking convergence criteria
 Diagonalising expanded subspace
 Copying updated data back
eigenvalue   17 init=  2.481     fin=  2.481     change= 0.5545E-07
 Checking convergence criteria
 no. bands in each block=           8
Kinetic eigenvalue #   1 =     0.37872827E+02
Kinetic eigenvalue #   2 =     0.39259389E+02
Kinetic eigenvalue #   3 =     0.39828255E+02
Kinetic eigenvalue #   4 =     0.39828260E+02
Kinetic eigenvalue #   5 =     0.25186723E+02
Kinetic eigenvalue #   6 =     0.43805622E+02
Kinetic eigenvalue #   7 =     0.37875739E+02
Kinetic eigenvalue #   8 =     0.37953623E+02
Kinetic eigenvalue #   9 =     0.36819316E+02
Kinetic eigenvalue #  10 =     0.32265673E+02
Kinetic eigenvalue #  11 =     0.22439585E+02
Kinetic eigenvalue #  12 =     0.36089903E+02
Kinetic eigenvalue #  13 =     0.36345366E+02
Kinetic eigenvalue #  14 =     0.23975481E+02
Kinetic eigenvalue #  15 =     0.13730900E+02
Kinetic eigenvalue #  16 =     0.14861435E+02
Kinetic eigenvalue #  17 =     0.80852684E+01
 Calculating the R matrix for the precon Sinv operator
 Diagonalising expanded subspace
 Copying updated data back
eigenvalue    1 init= -80.00     fin= -80.00     change= 0.1473E-08
eigenvalue    2 init= -49.54     fin= -49.54     change= 0.9904E-09
eigenvalue    3 init= -49.09     fin= -49.09     change= 0.3161E-10
eigenvalue    4 init= -49.09     fin= -49.09     change= 0.2904E-10
eigenvalue    5 init= -19.76     fin= -19.76     change= 0.1213E-05
eigenvalue    6 init= -6.647     fin= -6.647     change= 0.5616E-05
eigenvalue    7 init= -5.880     fin= -5.880     change= 0.9755E-06
eigenvalue    8 init= -5.877     fin= -5.877     change= 0.5960E-06
 Checking convergence criteria
 Diagonalising expanded subspace
 Copying updated data back
eigenvalue    1 init= -80.00     fin= -80.00     change= 0.1480E-08
eigenvalue    2 init= -49.54     fin= -49.54     change= 0.1035E-08
eigenvalue    3 init= -49.09     fin= -49.09     change= 0.3170E-10
eigenvalue    4 init= -49.09     fin= -49.09     change= 0.2904E-10
eigenvalue    5 init= -19.76     fin= -19.76     change= 0.1273E-05
eigenvalue    6 init= -6.647     fin= -6.647     change= 0.5960E-05
eigenvalue    7 init= -5.880     fin= -5.880     change= 0.9774E-06
eigenvalue    8 init= -5.877     fin= -5.877     change= 0.5960E-06
 Checking convergence criteria
 Diagonalising expanded subspace
 Copying updated data back
eigenvalue    9 init= -2.232     fin= -2.232     change= 0.9578E-06
eigenvalue   10 init= -2.113     fin= -2.113     change= 0.4646E-05
eigenvalue   11 init= -1.979     fin= -1.979     change= 0.8912E-05
eigenvalue   12 init= -1.193     fin= -1.193     change= 0.1607E-05
eigenvalue   13 init= -1.165     fin= -1.165     change= 0.5682E-05
eigenvalue   14 init= -.2403     fin= -.2403     change= 0.9759E-05
eigenvalue   15 init=  1.611     fin=  1.611     change= 0.2780E-06
eigenvalue   16 init=  1.842     fin=  1.842     change= 0.9474E-07
 Checking convergence criteria
 Diagonalising expanded subspace
 Copying updated data back
eigenvalue    9 init= -2.232     fin= -2.232     change= 0.9642E-06
eigenvalue   10 init= -2.113     fin= -2.113     change= 0.5073E-05
eigenvalue   11 init= -1.979     fin= -1.979     change= 0.9813E-05
eigenvalue   12 init= -1.193     fin= -1.193     change= 0.1837E-05
eigenvalue   13 init= -1.165     fin= -1.165     change= 0.6346E-05
eigenvalue   14 init= -.2403     fin= -.2403     change= 0.1097E-04
eigenvalue   15 init=  1.611     fin=  1.611     change= 0.3730E-06
eigenvalue   16 init=  1.842     fin=  1.842     change= 0.1121E-06
 Checking convergence criteria
 Diagonalising expanded subspace
 Copying updated data back
eigenvalue   17 init=  3.131     fin=  3.131     change= 0.6005E-06
 Checking convergence criteria
 no. bands in each block=           8
Kinetic eigenvalue #   1 =     0.37872752E+02
Kinetic eigenvalue #   2 =     0.39259377E+02
Kinetic eigenvalue #   3 =     0.39828243E+02
Kinetic eigenvalue #   4 =     0.39828505E+02
Kinetic eigenvalue #   5 =     0.25173050E+02
Kinetic eigenvalue #   6 =     0.43723010E+02
Kinetic eigenvalue #   7 =     0.37749840E+02
Kinetic eigenvalue #   8 =     0.38728885E+02
Kinetic eigenvalue #   9 =     0.19304159E+02
Kinetic eigenvalue #  10 =     0.31832881E+02
Kinetic eigenvalue #  11 =     0.36757792E+02
Kinetic eigenvalue #  12 =     0.34455454E+02
Kinetic eigenvalue #  13 =     0.39782238E+02
Kinetic eigenvalue #  14 =     0.24529100E+02
Kinetic eigenvalue #  15 =     0.14893019E+02
Kinetic eigenvalue #  16 =     0.89241411E+01
Kinetic eigenvalue #  17 =     0.16019077E+02
 Calculating the R matrix for the precon Sinv operator
 Diagonalising expanded subspace
 Copying updated data back
eigenvalue    1 init= -80.00     fin= -80.00     change= 0.1616E-08
eigenvalue    2 init= -49.54     fin= -49.54     change= 0.9850E-09
eigenvalue    3 init= -49.09     fin= -49.09     change= 0.3002E-10
eigenvalue    4 init= -49.09     fin= -49.09     change= 0.2894E-10
eigenvalue    5 init= -19.76     fin= -19.76     change= 0.1217E-05
eigenvalue    6 init= -6.652     fin= -6.652     change= 0.5773E-05
eigenvalue    7 init= -5.888     fin= -5.888     change= 0.7706E-06
eigenvalue    8 init= -5.823     fin= -5.823     change= 0.4414E-06
 Checking convergence criteria
 Diagonalising expanded subspace
 Copying updated data back
eigenvalue    1 init= -80.00     fin= -80.00     change= 0.1627E-08
eigenvalue    2 init= -49.54     fin= -49.54     change= 0.1029E-08
eigenvalue    3 init= -49.09     fin= -49.09     change= 0.3009E-10
eigenvalue    4 init= -49.09     fin= -49.09     change= 0.2894E-10
eigenvalue    5 init= -19.76     fin= -19.76     change= 0.1287E-05
eigenvalue    6 init= -6.652     fin= -6.652     change= 0.6261E-05
eigenvalue    7 init= -5.888     fin= -5.888     change= 0.7783E-06
eigenvalue    8 init= -5.823     fin= -5.823     change= 0.4420E-06
 Checking convergence criteria
 Diagonalising expanded subspace
 Copying updated data back
eigenvalue    9 init= -2.470     fin= -2.470     change= 0.6749E-05
eigenvalue   10 init= -2.201     fin= -2.201     change= 0.3371E-05
eigenvalue   11 init= -2.050     fin= -2.050     change= 0.2493E-05
eigenvalue   12 init= -1.233     fin= -1.233     change= 0.3717E-05
eigenvalue   13 init= -1.048     fin= -1.048     change= 0.1195E-05
eigenvalue   14 init= -.4399     fin= -.4400     change= 0.1181E-04
eigenvalue   15 init=  1.218     fin=  1.218     change= 0.1853E-06
eigenvalue   16 init=  2.533     fin=  2.533     change= 0.1638E-05
 Checking convergence criteria
 Diagonalising expanded subspace
 Copying updated data back
eigenvalue    9 init= -2.470     fin= -2.470     change= 0.7451E-05
eigenvalue   10 init= -2.201     fin= -2.201     change= 0.3691E-05
eigenvalue   11 init= -2.050     fin= -2.050     change= 0.2631E-05
eigenvalue   12 init= -1.233     fin= -1.233     change= 0.4215E-05
eigenvalue   13 init= -1.048     fin= -1.048     change= 0.1285E-05
eigenvalue   14 init= -.4399     fin= -.4400     change= 0.1362E-04
eigenvalue   15 init=  1.218     fin=  1.218     change= 0.2266E-06
eigenvalue   16 init=  2.533     fin=  2.533     change= 0.2157E-05
 Checking convergence criteria
 Diagonalising expanded subspace
 Copying updated data back
eigenvalue   17 init=  4.240     fin=  4.240     change= 0.2100E-06
 Checking convergence criteria
 no. bands in each block=           8
Kinetic eigenvalue #   1 =     0.37872751E+02
Kinetic eigenvalue #   2 =     0.39259377E+02
Kinetic eigenvalue #   3 =     0.39828243E+02
Kinetic eigenvalue #   4 =     0.39828505E+02
Kinetic eigenvalue #   5 =     0.25173050E+02
Kinetic eigenvalue #   6 =     0.43723008E+02
Kinetic eigenvalue #   7 =     0.37749840E+02
Kinetic eigenvalue #   8 =     0.38728884E+02
Kinetic eigenvalue #   9 =     0.19304442E+02
Kinetic eigenvalue #  10 =     0.31832881E+02
Kinetic eigenvalue #  11 =     0.36757791E+02
Kinetic eigenvalue #  12 =     0.34455446E+02
Kinetic eigenvalue #  13 =     0.39782223E+02
Kinetic eigenvalue #  14 =     0.24529668E+02
Kinetic eigenvalue #  15 =     0.14893033E+02
Kinetic eigenvalue #  16 =     0.89240129E+01
Kinetic eigenvalue #  17 =     0.16026346E+02
 Calculating the R matrix for the precon Sinv operator
 Diagonalising expanded subspace
 Copying updated data back
eigenvalue    1 init= -80.00     fin= -80.00     change= 0.1619E-08
eigenvalue    2 init= -49.54     fin= -49.54     change= 0.9862E-09
eigenvalue    3 init= -49.09     fin= -49.09     change= 0.3007E-10
eigenvalue    4 init= -49.09     fin= -49.09     change= 0.2892E-10
eigenvalue    5 init= -19.76     fin= -19.76     change= 0.1217E-05
eigenvalue    6 init= -6.652     fin= -6.652     change= 0.5774E-05
eigenvalue    7 init= -5.888     fin= -5.888     change= 0.7708E-06
eigenvalue    8 init= -5.823     fin= -5.823     change= 0.4383E-06
 Checking convergence criteria
 Diagonalising expanded subspace
 Copying updated data back
eigenvalue    1 init= -80.00     fin= -80.00     change= 0.1629E-08
eigenvalue    2 init= -49.54     fin= -49.54     change= 0.1030E-08
eigenvalue    3 init= -49.09     fin= -49.09     change= 0.3014E-10
eigenvalue    4 init= -49.09     fin= -49.09     change= 0.2897E-10
eigenvalue    5 init= -19.76     fin= -19.76     change= 0.1287E-05
eigenvalue    6 init= -6.652     fin= -6.652     change= 0.6264E-05
eigenvalue    7 init= -5.888     fin= -5.888     change= 0.7785E-06
eigenvalue    8 init= -5.823     fin= -5.823     change= 0.4387E-06
 Checking convergence criteria
 Diagonalising expanded subspace
 Copying updated data back
eigenvalue    9 init= -2.470     fin= -2.470     change= 0.6830E-05
eigenvalue   10 init= -2.201     fin= -2.201     change= 0.3428E-05
eigenvalue   11 init= -2.050     fin= -2.050     change= 0.2492E-05
eigenvalue   12 init= -1.233     fin= -1.233     change= 0.3739E-05
eigenvalue   13 init= -1.048     fin= -1.048     change= 0.1188E-05
eigenvalue   14 init= -.4399     fin= -.4400     change= 0.1154E-04
eigenvalue   15 init=  1.218     fin=  1.218     change= 0.1984E-06
eigenvalue   16 init=  2.533     fin=  2.533     change= 0.1602E-05
 Checking convergence criteria
 Diagonalising expanded subspace
 Copying updated data back
eigenvalue    9 init= -2.470     fin= -2.470     change= 0.7536E-05
eigenvalue   10 init= -2.201     fin= -2.201     change= 0.3754E-05
eigenvalue   11 init= -2.050     fin= -2.050     change= 0.2630E-05
eigenvalue   12 init= -1.233     fin= -1.233     change= 0.4239E-05
eigenvalue   13 init= -1.048     fin= -1.048     change= 0.1277E-05
eigenvalue   14 init= -.4399     fin= -.4400     change= 0.1326E-04
eigenvalue   15 init=  1.218     fin=  1.218     change= 0.2433E-06
eigenvalue   16 init=  2.533     fin=  2.533     change= 0.2063E-05
 Checking convergence criteria
 Diagonalising expanded subspace
 Copying updated data back
eigenvalue   17 init=  4.240     fin=  4.240     change= 0.9358E-07
 Checking convergence criteria
 no. bands in each block=           8
Kinetic eigenvalue #   1 =     0.37872810E+02
Kinetic eigenvalue #   2 =     0.39259389E+02
Kinetic eigenvalue #   3 =     0.39828255E+02
Kinetic eigenvalue #   4 =     0.39828260E+02
Kinetic eigenvalue #   5 =     0.25186721E+02
Kinetic eigenvalue #   6 =     0.43805574E+02
Kinetic eigenvalue #   7 =     0.37875726E+02
Kinetic eigenvalue #   8 =     0.37953623E+02
Kinetic eigenvalue #   9 =     0.36819317E+02
Kinetic eigenvalue #  10 =     0.32265597E+02
Kinetic eigenvalue #  11 =     0.22439552E+02
Kinetic eigenvalue #  12 =     0.36089907E+02
Kinetic eigenvalue #  13 =     0.36345377E+02
Kinetic eigenvalue #  14 =     0.23975518E+02
Kinetic eigenvalue #  15 =     0.13729851E+02
Kinetic eigenvalue #  16 =     0.14861414E+02
Kinetic eigenvalue #  17 =     0.80823873E+01
 Calculating the R matrix for the precon Sinv operator
 Diagonalising expanded subspace
 Copying updated data back
eigenvalue    1 init= -80.00     fin= -80.00     change= 0.1532E-08
eigenvalue    2 init= -49.54     fin= -49.54     change= 0.9875E-09
eigenvalue    3 init= -49.09     fin= -49.09     change= 0.3147E-10
eigenvalue    4 init= -49.09     fin= -49.09     change= 0.2892E-10
eigenvalue    5 init= -19.76     fin= -19.76     change= 0.1208E-05
eigenvalue    6 init= -6.647     fin= -6.647     change= 0.5551E-05
eigenvalue    7 init= -5.880     fin= -5.880     change= 0.9735E-06
eigenvalue    8 init= -5.877     fin= -5.877     change= 0.5961E-06
 Checking convergence criteria
 Diagonalising expanded subspace
 Copying updated data back
eigenvalue    1 init= -80.00     fin= -80.00     change= 0.1541E-08
eigenvalue    2 init= -49.54     fin= -49.54     change= 0.1032E-08
eigenvalue    3 init= -49.09     fin= -49.09     change= 0.3156E-10
eigenvalue    4 init= -49.09     fin= -49.09     change= 0.2894E-10
eigenvalue    5 init= -19.76     fin= -19.76     change= 0.1272E-05
eigenvalue    6 init= -6.647     fin= -6.647     change= 0.5912E-05
eigenvalue    7 init= -5.880     fin= -5.880     change= 0.9755E-06
eigenvalue    8 init= -5.877     fin= -5.877     change= 0.5961E-06
 Checking convergence criteria
 Diagonalising expanded subspace
 Copying updated data back
eigenvalue    9 init= -2.232     fin= -2.232     change= 0.9574E-06
eigenvalue   10 init= -2.113     fin= -2.113     change= 0.4687E-05
eigenvalue   11 init= -1.979     fin= -1.979     change= 0.8972E-05
eigenvalue   12 init= -1.193     fin= -1.193     change= 0.1605E-05
eigenvalue   13 init= -1.165     fin= -1.165     change= 0.5653E-05
eigenvalue   14 init= -.2403     fin= -.2403     change= 0.9743E-05
eigenvalue   15 init=  1.611     fin=  1.611     change= 0.1592E-06
eigenvalue   16 init=  1.842     fin=  1.842     change= 0.9495E-07
 Checking convergence criteria
 Diagonalising expanded subspace
 Copying updated data back
eigenvalue    9 init= -2.232     fin= -2.232     change= 0.9637E-06
eigenvalue   10 init= -2.113     fin= -2.113     change= 0.5124E-05
eigenvalue   11 init= -1.979     fin= -1.979     change= 0.9831E-05
eigenvalue   12 init= -1.193     fin= -1.193     change= 0.1835E-05
eigenvalue   13 init= -1.165     fin= -1.165     change= 0.6329E-05
eigenvalue   14 init= -.2403     fin= -.2403     change= 0.1094E-04
eigenvalue   15 init=  1.611     fin=  1.611     change= 0.1885E-06
eigenvalue   16 init=  1.842     fin=  1.842     change= 0.1125E-06
 Checking convergence criteria
 Diagonalising expanded subspace
 Copying updated data back
eigenvalue   17 init=  3.131     fin=  3.131     change= 0.5675E-06
 Checking convergence criteria
 no. bands in each block=           8
Kinetic eigenvalue #   1 =     0.37872752E+02
Kinetic eigenvalue #   2 =     0.39259377E+02
Kinetic eigenvalue #   3 =     0.39828243E+02
Kinetic eigenvalue #   4 =     0.39828505E+02
Kinetic eigenvalue #   5 =     0.25173050E+02
Kinetic eigenvalue #   6 =     0.43723007E+02
Kinetic eigenvalue #   7 =     0.37749840E+02
Kinetic eigenvalue #   8 =     0.38728886E+02
Kinetic eigenvalue #   9 =     0.19304417E+02
Kinetic eigenvalue #  10 =     0.31832909E+02
Kinetic eigenvalue #  11 =     0.36757792E+02
Kinetic eigenvalue #  12 =     0.34455431E+02
Kinetic eigenvalue #  13 =     0.39782232E+02
Kinetic eigenvalue #  14 =     0.24529650E+02
Kinetic eigenvalue #  15 =     0.14893062E+02
Kinetic eigenvalue #  16 =     0.89240042E+01
Kinetic eigenvalue #  17 =     0.16012492E+02
 Calculating the R matrix for the precon Sinv operator
 Diagonalising expanded subspace
 Copying updated data back
eigenvalue    1 init= -80.00     fin= -80.00     change= 0.1614E-08
eigenvalue    2 init= -49.54     fin= -49.54     change= 0.9853E-09
eigenvalue    3 init= -49.09     fin= -49.09     change= 0.3029E-10
eigenvalue    4 init= -49.09     fin= -49.09     change= 0.2883E-10
eigenvalue    5 init= -19.76     fin= -19.76     change= 0.1217E-05
eigenvalue    6 init= -6.652     fin= -6.652     change= 0.5770E-05
eigenvalue    7 init= -5.888     fin= -5.888     change= 0.7703E-06
eigenvalue    8 init= -5.823     fin= -5.823     change= 0.4437E-06
 Checking convergence criteria
 Diagonalising expanded subspace
 Copying updated data back
eigenvalue    1 init= -80.00     fin= -80.00     change= 0.1625E-08
eigenvalue    2 init= -49.54     fin= -49.54     change= 0.1029E-08
eigenvalue    3 init= -49.09     fin= -49.09     change= 0.3033E-10
eigenvalue    4 init= -49.09     fin= -49.09     change= 0.2889E-10
eigenvalue    5 init= -19.76     fin= -19.76     change= 0.1287E-05
eigenvalue    6 init= -6.652     fin= -6.652     change= 0.6258E-05
eigenvalue    7 init= -5.888     fin= -5.888     change= 0.7779E-06
eigenvalue    8 init= -5.823     fin= -5.823     change= 0.4443E-06
 Checking convergence criteria
 Diagonalising expanded subspace
 Copying updated data back
eigenvalue    9 init= -2.470     fin= -2.470     change= 0.6808E-05
eigenvalue   10 init= -2.201     fin= -2.201     change= 0.3428E-05
eigenvalue   11 init= -2.050     fin= -2.050     change= 0.2493E-05
eigenvalue   12 init= -1.233     fin= -1.233     change= 0.3726E-05
eigenvalue   13 init= -1.048     fin= -1.048     change= 0.1204E-05
eigenvalue   14 init= -.4399     fin= -.4400     change= 0.1151E-04
eigenvalue   15 init=  1.218     fin=  1.218     change= 0.1981E-06
eigenvalue   16 init=  2.533     fin=  2.533     change= 0.1627E-05
 Checking convergence criteria
 Diagonalising expanded subspace
 Copying updated data back
eigenvalue    9 init= -2.470     fin= -2.470     change= 0.7523E-05
eigenvalue   10 init= -2.201     fin= -2.201     change= 0.3755E-05
eigenvalue   11 init= -2.050     fin= -2.050     change= 0.2631E-05
eigenvalue   12 init= -1.233     fin= -1.233     change= 0.4234E-05
eigenvalue   13 init= -1.048     fin= -1.048     change= 0.1298E-05
eigenvalue   14 init= -.4399     fin= -.4400     change= 0.1327E-04
eigenvalue   15 init=  1.218     fin=  1.218     change= 0.2434E-06
eigenvalue   16 init=  2.533     fin=  2.533     change= 0.2097E-05
 Checking convergence criteria
 Diagonalising expanded subspace
 Copying updated data back
eigenvalue   17 init=  4.240     fin=  4.240     change= 0.2722E-06
 Checking convergence criteria
(Entering electronic_find_fermi_fix)
Smearing occupancies with Gaussians
Spin: 1, Min eigenvalue: -8.4755E+001 eV, Max eigenvalue:  3.4397E+000 eV
Fermi energy for up electrons = -3.1466E+000 eV [lower bound; range =  1.96E-014 eV]
Spin: 2, Min eigenvalue: -8.0796E+001 eV, Max eigenvalue:  5.0396E+000 eV
Fermi energy for down electrons = -3.1338E+000 eV [lower bound; range =  1.91E-014 eV]
(Leaving electronic_find_fermi_fix)
NB material has an apparent band gap of  1.3801E+000eV for spin up electrons.
NB material has an apparent band gap of  3.3529E+000eV for spin down electrons.
Calculating KE and non-local eigenvalues to find total energy
 
End of SCF cycle energies
Exchange-correlation energy      =      -499.07913191541501874 eV
+Hartree energy                  =      2055.86480228865912068 eV
+Local pseudopotential energy    =     -5072.04198973965321784 eV
----------------------------------
Potential energy (total)         =     -3515.96404068162019030 eV
                                  
+Hubbard U energy                =        -0.47999999999999998 eV
+Kinetic energy                  =       777.00320423015193683 eV
+Non-local energy                =       152.66761098154410092 eV
+Electronic entropy term (-TS)   =        -0.00123615670544647 eV
+Ewald energy (const)            =      -774.85607651874397561 eV
+non-Coulombic energy (const)    =        13.80612138473854067 eV
----------------------------------
Total free energy (E-TS)         =     -3347.82441676063399427 eV
 
NB est. 0K energy (E-0.5TS)      =     -3347.82379868228144915 eV
 
(XC correction to eigenvalue sum =        44.01690523340165129 eV)
(Hubbard U correction to eigenvalu         0.00000003000000000 eV)
 
      1  -3.34782442E+003 -3.14174847E+000  -1.06017551E-002      15.78  <-- SCF
 Calculate new overlap and Hubbard U matrix
 Density matrix in cubic harmonics:
     1.0000     0.0000     0.0000     0.0000     0.0000
     0.0000     0.0000     0.0000     0.0000     0.0000
     0.0000     0.0000     0.0000     0.0000     0.0000
     0.0000     0.0000     0.0000     0.0000     0.0000
     0.0000     0.0000     0.0000     0.0000     0.0000
     0.0000     0.0000     0.0000     0.0000     0.0000
     0.0000     0.0000     0.0000     1.0000     0.0000
     0.0000     0.0000     0.0000     0.0000     0.0000
     0.0000     0.0000     0.0000     0.0000     1.0000
     0.0000     0.0000     0.0000     0.0000     0.0000
 Hermiticity:        (-4.44089209850062616E-016,0.0000000000000000)
 Density matrix in cubic harmonics:
     1.0000     0.0000     0.0000     0.0000     0.0000
     0.0000     0.0000     0.0000     0.0000     0.0000
     0.0000     0.0000     0.0000     0.0000     0.0000
     0.0000     0.0000     0.0000     0.0000     0.0000
     0.0000     0.0000     0.0000     0.0000     0.0000
     0.0000     0.0000     0.0000     0.0000     0.0000
     0.0000     0.0000     0.0000     1.0000     0.0000
     0.0000     0.0000     0.0000     0.0000     0.0000
     0.0000     0.0000     0.0000     0.0000     1.0000
     0.0000     0.0000     0.0000     0.0000     0.0000
 Hermiticity:        (-4.44089209850062616E-016,0.0000000000000000)
 Density matrix in cubic harmonics:
     0.9460     0.0000    -0.0000     0.0932     0.0000
     0.0000     0.0000     0.0000     0.0000     0.0000
     0.0000     0.9997     0.0000    -0.0000     0.0000
     0.0000     0.0000     0.0000     0.0000     0.0000
    -0.0000     0.0000     0.9794     0.0000    -0.0000
     0.0000     0.0000     0.0000     0.0000     0.0000
     0.0932    -0.0000     0.0000     0.8383    -0.0000
     0.0000     0.0000     0.0000     0.0000     0.0000
     0.0000     0.0000    -0.0000    -0.0000     0.9794
     0.0000     0.0000     0.0000     0.0000     0.0000
 Hermiticity:              (0.21007008186272480,0.0000000000000000)
 Density matrix in cubic harmonics:
     0.0880    -0.0000    -0.0000    -0.1522     0.0000
     0.0000     0.0000     0.0000     0.0000     0.0000
    -0.0000     0.0000    -0.0000     0.0000     0.0000
     0.0000     0.0000     0.0000     0.0000     0.0000
    -0.0000    -0.0000     0.3257    -0.0000     0.0000
     0.0000     0.0000     0.0000     0.0000     0.0000
    -0.1522     0.0000    -0.0000     0.2637     0.0000
     0.0000     0.0000     0.0000     0.0000     0.0000
     0.0000     0.0000     0.0000     0.0000     0.3257
     0.0000     0.0000     0.0000     0.0000     0.0000
 Hermiticity:              (0.66729910356651245,0.0000000000000000)
  Hubbard energy diff=   2.0344844853690629E-002 eV <-- Hubbard_U
  ----------- Hubbard U: New occupation matrix calculated: --------------------
 -0.45965515514630939      eV <= Edirect

     Hubbard U occupation numbers
     ----------------------------
Species   Ion   l  spin               occupancies
==================================================================
  Mn       1    2   up:   0.78  0.98  0.98  1.00  1.00
                    dn:   0.00  0.00  0.33  0.33  0.35
==================================================================

 Only the high frequencies of the density were mixed in this cycle 
Symmetrising density
Calculating local potential
Calculating Hubbard U potential
 Density matrix in cubic harmonics:
     1.0000     0.0000     0.0000     0.0000     0.0000
     0.0000     0.0000     0.0000     0.0000     0.0000
     0.0000     0.0000     0.0000     0.0000     0.0000
     0.0000     0.0000     0.0000     0.0000     0.0000
     0.0000     0.0000     0.0000     0.0000     0.0000
     0.0000     0.0000     0.0000     0.0000     0.0000
     0.0000     0.0000     0.0000     1.0000     0.0000
     0.0000     0.0000     0.0000     0.0000     0.0000
     0.0000     0.0000     0.0000     0.0000     1.0000
     0.0000     0.0000     0.0000     0.0000     0.0000
 Hermiticity:        (-4.44089209850062616E-016,0.0000000000000000)
 Density matrix in cubic harmonics:
     1.0000     0.0000     0.0000     0.0000     0.0000
     0.0000     0.0000     0.0000     0.0000     0.0000
     0.0000     0.0000     0.0000     0.0000     0.0000
     0.0000     0.0000     0.0000     0.0000     0.0000
     0.0000     0.0000     0.0000     0.0000     0.0000
     0.0000     0.0000     0.0000     0.0000     0.0000
     0.0000     0.0000     0.0000     1.0000     0.0000
     0.0000     0.0000     0.0000     0.0000     0.0000
     0.0000     0.0000     0.0000     0.0000     1.0000
     0.0000     0.0000     0.0000     0.0000     0.0000
 Hermiticity:        (-4.44089209850062616E-016,0.0000000000000000)
Calculating non-local weights
Starting SCF cycle     2 of up to    30
 no. bands in each block=           8
Kinetic eigenvalue #   1 =     0.38349113E+02
Kinetic eigenvalue #   2 =     0.39990488E+02
Kinetic eigenvalue #   3 =     0.39990492E+02
Kinetic eigenvalue #   4 =     0.39595158E+02
Kinetic eigenvalue #   5 =     0.25120822E+02
Kinetic eigenvalue #   6 =     0.42123249E+02
Kinetic eigenvalue #   7 =     0.37362571E+02
Kinetic eigenvalue #   8 =     0.37381799E+02
Kinetic eigenvalue #   9 =     0.37901399E+02
Kinetic eigenvalue #  10 =     0.37457759E+02
Kinetic eigenvalue #  11 =     0.23566516E+02
Kinetic eigenvalue #  12 =     0.38403371E+02
Kinetic eigenvalue #  13 =     0.38515305E+02
Kinetic eigenvalue #  14 =     0.24610707E+02
Kinetic eigenvalue #  15 =     0.13622224E+02
Kinetic eigenvalue #  16 =     0.14236877E+02
Kinetic eigenvalue #  17 =     0.77197284E+01
 Diagonalising expanded subspace
 Copying updated data back
eigenvalue    1 init= -83.96     fin= -83.96     change= 0.1360E-08
eigenvalue    2 init= -53.14     fin= -53.14     change= 0.1370E-10
eigenvalue    3 init= -53.14     fin= -53.14     change= 0.1301E-10
eigenvalue    4 init= -52.98     fin= -52.98     change= 0.2147E-10
eigenvalue    5 init= -20.23     fin= -20.23     change= 0.1357E-07
eigenvalue    6 init= -7.679     fin= -7.679     change= 0.4916E-07
eigenvalue    7 init= -7.279     fin= -7.279     change= 0.7291E-07
eigenvalue    8 init= -7.278     fin= -7.278     change= 0.7010E-07
 Checking convergence criteria
 Diagonalising expanded subspace
 Copying updated data back
eigenvalue    9 init= -5.929     fin= -5.929     change= 0.1121E-08
eigenvalue   10 init= -5.762     fin= -5.762     change= 0.7232E-08
eigenvalue   11 init= -4.257     fin= -4.257     change= 0.3689E-07
eigenvalue   12 init= -3.678     fin= -3.678     change= 0.6818E-07
eigenvalue   13 init= -3.650     fin= -3.650     change= 0.1489E-07
eigenvalue   14 init= -1.795     fin= -1.795     change= 0.7069E-07
eigenvalue   15 init= 0.2998     fin= 0.2998     change= 0.2913E-07
eigenvalue   16 init= 0.4299     fin= 0.4299     change= 0.1990E-07
 Checking convergence criteria
 Diagonalising expanded subspace
 Copying updated data back
eigenvalue   17 init=  2.640     fin=  2.640     change= 0.1067E-06
 Checking convergence criteria
 no. bands in each block=           8
Kinetic eigenvalue #   1 =     0.38349091E+02
Kinetic eigenvalue #   2 =     0.39990479E+02
Kinetic eigenvalue #   3 =     0.39990669E+02
Kinetic eigenvalue #   4 =     0.39595150E+02
Kinetic eigenvalue #   5 =     0.25107529E+02
Kinetic eigenvalue #   6 =     0.42056780E+02
Kinetic eigenvalue #   7 =     0.37304242E+02
Kinetic eigenvalue #   8 =     0.37758911E+02
Kinetic eigenvalue #   9 =     0.37467486E+02
Kinetic eigenvalue #  10 =     0.37726788E+02
Kinetic eigenvalue #  11 =     0.20473029E+02
Kinetic eigenvalue #  12 =     0.37620243E+02
Kinetic eigenvalue #  13 =     0.41220398E+02
Kinetic eigenvalue #  14 =     0.25472070E+02
Kinetic eigenvalue #  15 =     0.13510531E+02
Kinetic eigenvalue #  16 =     0.80338636E+01
Kinetic eigenvalue #  17 =     0.17105992E+02
 Diagonalising expanded subspace
 Copying updated data back
eigenvalue    1 init= -83.96     fin= -83.96     change= 0.1436E-08
eigenvalue    2 init= -53.14     fin= -53.14     change= 0.1315E-10
eigenvalue    3 init= -53.14     fin= -53.14     change= 0.1339E-10
eigenvalue    4 init= -52.98     fin= -52.98     change= 0.1844E-10
eigenvalue    5 init= -20.23     fin= -20.23     change= 0.1068E-07
eigenvalue    6 init= -7.683     fin= -7.683     change= 0.3222E-07
eigenvalue    7 init= -7.283     fin= -7.283     change= 0.1260E-07
eigenvalue    8 init= -7.248     fin= -7.248     change= 0.3241E-07
 Checking convergence criteria
 Diagonalising expanded subspace
 Copying updated data back
eigenvalue    9 init= -5.963     fin= -5.963     change= 0.2835E-08
eigenvalue   10 init= -5.742     fin= -5.742     change= 0.5780E-08
eigenvalue   11 init= -4.508     fin= -4.508     change= 0.3428E-07
eigenvalue   12 init= -3.697     fin= -3.697     change= 0.2344E-07
eigenvalue   13 init= -3.549     fin= -3.549     change= 0.2930E-07
eigenvalue   14 init= -1.988     fin= -1.988     change= 0.7532E-07
eigenvalue   15 init= -.6648E-01 fin= -.6648E-01 change= 0.1858E-07
eigenvalue   16 init=  2.023     fin=  2.023     change= 0.2011E-06
 Checking convergence criteria
 Diagonalising expanded subspace
 Copying updated data back
eigenvalue   17 init=  2.481     fin=  2.481     change= 0.1283E-07
 Checking convergence criteria
 no. bands in each block=           8
Kinetic eigenvalue #   1 =     0.38349099E+02
Kinetic eigenvalue #   2 =     0.39990479E+02
Kinetic eigenvalue #   3 =     0.39990669E+02
Kinetic eigenvalue #   4 =     0.39595150E+02
Kinetic eigenvalue #   5 =     0.25107535E+02
Kinetic eigenvalue #   6 =     0.42056798E+02
Kinetic eigenvalue #   7 =     0.37304251E+02
Kinetic eigenvalue #   8 =     0.37758923E+02
Kinetic eigenvalue #   9 =     0.37467485E+02
Kinetic eigenvalue #  10 =     0.37726788E+02
Kinetic eigenvalue #  11 =     0.20473023E+02
Kinetic eigenvalue #  12 =     0.37620223E+02
Kinetic eigenvalue #  13 =     0.41220375E+02
Kinetic eigenvalue #  14 =     0.25472143E+02
Kinetic eigenvalue #  15 =     0.13510509E+02
Kinetic eigenvalue #  16 =     0.80338590E+01
Kinetic eigenvalue #  17 =     0.17105480E+02
 Diagonalising expanded subspace
 Copying updated data back
eigenvalue    1 init= -83.96     fin= -83.96     change= 0.1364E-08
eigenvalue    2 init= -53.14     fin= -53.14     change= 0.1303E-10
eigenvalue    3 init= -53.14     fin= -53.14     change= 0.1337E-10
eigenvalue    4 init= -52.98     fin= -52.98     change= 0.1836E-10
eigenvalue    5 init= -20.23     fin= -20.23     change= 0.1067E-07
eigenvalue    6 init= -7.683     fin= -7.683     change= 0.3001E-07
eigenvalue    7 init= -7.283     fin= -7.283     change= 0.1295E-07
eigenvalue    8 init= -7.248     fin= -7.248     change= 0.3177E-07
 Checking convergence criteria
 Diagonalising expanded subspace
 Copying updated data back
eigenvalue    9 init= -5.963     fin= -5.963     change= 0.2828E-08
eigenvalue   10 init= -5.742     fin= -5.742     change= 0.5782E-08
eigenvalue   11 init= -4.508     fin= -4.508     change= 0.3462E-07
eigenvalue   12 init= -3.697     fin= -3.697     change= 0.2461E-07
eigenvalue   13 init= -3.549     fin= -3.549     change= 0.2916E-07
eigenvalue   14 init= -1.988     fin= -1.988     change= 0.7552E-07
eigenvalue   15 init= -.6648E-01 fin= -.6648E-01 change= 0.1748E-07
eigenvalue   16 init=  2.023     fin=  2.023     change= 0.1748E-06
 Checking convergence criteria
 Diagonalising expanded subspace
 Copying updated data back
eigenvalue   17 init=  2.481     fin=  2.481     change= 0.5482E-07
 Checking convergence criteria
 no. bands in each block=           8
Kinetic eigenvalue #   1 =     0.38349117E+02
Kinetic eigenvalue #   2 =     0.39990488E+02
Kinetic eigenvalue #   3 =     0.39990492E+02
Kinetic eigenvalue #   4 =     0.39595158E+02
Kinetic eigenvalue #   5 =     0.25120832E+02
Kinetic eigenvalue #   6 =     0.42123169E+02
Kinetic eigenvalue #   7 =     0.37362576E+02
Kinetic eigenvalue #   8 =     0.37381801E+02
Kinetic eigenvalue #   9 =     0.37901399E+02
Kinetic eigenvalue #  10 =     0.37457760E+02
Kinetic eigenvalue #  11 =     0.23566518E+02
Kinetic eigenvalue #  12 =     0.38403371E+02
Kinetic eigenvalue #  13 =     0.38515283E+02
Kinetic eigenvalue #  14 =     0.24610820E+02
Kinetic eigenvalue #  15 =     0.13622228E+02
Kinetic eigenvalue #  16 =     0.14236876E+02
Kinetic eigenvalue #  17 =     0.77179953E+01
 Diagonalising expanded subspace
 Copying updated data back
eigenvalue    1 init= -83.96     fin= -83.96     change= 0.1334E-08
eigenvalue    2 init= -53.14     fin= -53.14     change= 0.1360E-10
eigenvalue    3 init= -53.14     fin= -53.14     change= 0.1292E-10
eigenvalue    4 init= -52.98     fin= -52.98     change= 0.2099E-10
eigenvalue    5 init= -20.23     fin= -20.23     change= 0.1261E-07
eigenvalue    6 init= -7.679     fin= -7.679     change= 0.4138E-07
eigenvalue    7 init= -7.279     fin= -7.279     change= 0.7241E-07
eigenvalue    8 init= -7.278     fin= -7.278     change= 0.7001E-07
 Checking convergence criteria
 Diagonalising expanded subspace
 Copying updated data back
eigenvalue    9 init= -5.929     fin= -5.929     change= 0.1121E-08
eigenvalue   10 init= -5.762     fin= -5.762     change= 0.7288E-08
eigenvalue   11 init= -4.257     fin= -4.257     change= 0.2850E-07
eigenvalue   12 init= -3.678     fin= -3.678     change= 0.6817E-07
eigenvalue   13 init= -3.650     fin= -3.650     change= 0.1526E-07
eigenvalue   14 init= -1.795     fin= -1.795     change= 0.5455E-07
eigenvalue   15 init= 0.2998     fin= 0.2998     change= 0.3077E-07
eigenvalue   16 init= 0.4299     fin= 0.4299     change= 0.1994E-07
 Checking convergence criteria
 Diagonalising expanded subspace
 Copying updated data back
eigenvalue   17 init=  2.640     fin=  2.640     change= 0.9802E-07
 Checking convergence criteria
 no. bands in each block=           8
Kinetic eigenvalue #   1 =     0.38349105E+02
Kinetic eigenvalue #   2 =     0.39990479E+02
Kinetic eigenvalue #   3 =     0.39990669E+02
Kinetic eigenvalue #   4 =     0.39595150E+02
Kinetic eigenvalue #   5 =     0.25107532E+02
Kinetic eigenvalue #   6 =     0.42056805E+02
Kinetic eigenvalue #   7 =     0.37304251E+02
Kinetic eigenvalue #   8 =     0.37758921E+02
Kinetic eigenvalue #   9 =     0.37467486E+02
Kinetic eigenvalue #  10 =     0.37726788E+02
Kinetic eigenvalue #  11 =     0.20472923E+02
Kinetic eigenvalue #  12 =     0.37620220E+02
Kinetic eigenvalue #  13 =     0.41220397E+02
Kinetic eigenvalue #  14 =     0.25471801E+02
Kinetic eigenvalue #  15 =     0.13510553E+02
Kinetic eigenvalue #  16 =     0.80339098E+01
Kinetic eigenvalue #  17 =     0.17105440E+02
 Diagonalising expanded subspace
 Copying updated data back
eigenvalue    1 init= -83.96     fin= -83.96     change= 0.1341E-08
eigenvalue    2 init= -53.14     fin= -53.14     change= 0.1294E-10
eigenvalue    3 init= -53.14     fin= -53.14     change= 0.1348E-10
eigenvalue    4 init= -52.98     fin= -52.98     change= 0.1849E-10
eigenvalue    5 init= -20.23     fin= -20.23     change= 0.1076E-07
eigenvalue    6 init= -7.683     fin= -7.683     change= 0.3015E-07
eigenvalue    7 init= -7.283     fin= -7.283     change= 0.1290E-07
eigenvalue    8 init= -7.248     fin= -7.248     change= 0.3155E-07
 Checking convergence criteria
 Diagonalising expanded subspace
 Copying updated data back
eigenvalue    9 init= -5.963     fin= -5.963     change= 0.2899E-08
eigenvalue   10 init= -5.742     fin= -5.742     change= 0.5775E-08
eigenvalue   11 init= -4.508     fin= -4.508     change= 0.4671E-07
eigenvalue   12 init= -3.697     fin= -3.697     change= 0.2323E-07
eigenvalue   13 init= -3.549     fin= -3.549     change= 0.2968E-07
eigenvalue   14 init= -1.988     fin= -1.988     change= 0.9435E-07
eigenvalue   15 init= -.6648E-01 fin= -.6648E-01 change= 0.1877E-07
eigenvalue   16 init=  2.023     fin=  2.023     change= 0.1397E-06
 Checking convergence criteria
 Diagonalising expanded subspace
 Copying updated data back
eigenvalue   17 init=  2.481     fin=  2.481     change= 0.4309E-07
 Checking convergence criteria
 no. bands in each block=           8
Kinetic eigenvalue #   1 =     0.37872910E+02
Kinetic eigenvalue #   2 =     0.39259348E+02
Kinetic eigenvalue #   3 =     0.39828255E+02
Kinetic eigenvalue #   4 =     0.39828258E+02
Kinetic eigenvalue #   5 =     0.25193033E+02
Kinetic eigenvalue #   6 =     0.43772590E+02
Kinetic eigenvalue #   7 =     0.37837638E+02
Kinetic eigenvalue #   8 =     0.37913715E+02
Kinetic eigenvalue #   9 =     0.36839876E+02
Kinetic eigenvalue #  10 =     0.34298036E+02
Kinetic eigenvalue #  11 =     0.20756441E+02
Kinetic eigenvalue #  12 =     0.36231569E+02
Kinetic eigenvalue #  13 =     0.36481986E+02
Kinetic eigenvalue #  14 =     0.23752597E+02
Kinetic eigenvalue #  15 =     0.13622170E+02
Kinetic eigenvalue #  16 =     0.14748021E+02
Kinetic eigenvalue #  17 =     0.80575932E+01
 Diagonalising expanded subspace
 Copying updated data back
eigenvalue    1 init= -80.00     fin= -80.00     change= 0.8325E-09
eigenvalue    2 init= -49.54     fin= -49.54     change= 0.1621E-10
eigenvalue    3 init= -49.09     fin= -49.09     change= 0.7649E-11
eigenvalue    4 init= -49.09     fin= -49.09     change= 0.7057E-11
eigenvalue    5 init= -19.76     fin= -19.76     change= 0.4196E-08
eigenvalue    6 init= -6.647     fin= -6.647     change= 0.3342E-07
eigenvalue    7 init= -5.880     fin= -5.880     change= 0.7910E-07
eigenvalue    8 init= -5.877     fin= -5.877     change= 0.4077E-07
 Checking convergence criteria
 Diagonalising expanded subspace
 Copying updated data back
eigenvalue    9 init= -2.232     fin= -2.232     change= 0.4135E-07
eigenvalue   10 init= -2.113     fin= -2.113     change= 0.3956E-07
eigenvalue   11 init= -1.979     fin= -1.979     change= 0.7900E-07
eigenvalue   12 init= -1.193     fin= -1.193     change= 0.3159E-07
eigenvalue   13 init= -1.165     fin= -1.165     change= 0.6279E-07
eigenvalue   14 init= -.2403     fin= -.2403     change= 0.1221E-06
eigenvalue   15 init=  1.611     fin=  1.611     change= 0.8205E-07
eigenvalue   16 init=  1.842     fin=  1.842     change= 0.1293E-07
 Checking convergence criteria
 Diagonalising expanded subspace
 Copying updated data back
eigenvalue   17 init=  3.131     fin=  3.131     change= 0.3290E-06
 Checking convergence criteria
 no. bands in each block=           8
Kinetic eigenvalue #   1 =     0.37872843E+02
Kinetic eigenvalue #   2 =     0.39259336E+02
[...]
Spin 1, kpoint ( 0.250000 -0.333333  0.333333 ) weight = 0.111111
+--------+-------------------+----------------+
|  Band  |   Eigenvalue      |    Occupancy   |                   <- occ
+--------+-------------------+----------------+                   <- occ
|     8  |   -.725839E+01    |   1.00000      |                   <- occ
|     9  |   -.587889E+01    |   1.00000      |                   <- occ
|    10  |   -.571236E+01    |   1.00000      |                   <- occ
|    11  |   -.423376E+01    |   1.00000      |                   <- occ
|    12  |   -.365853E+01    |  0.999924      |                   <- occ
|    13  |   -.363020E+01    |  0.999834      |                   <- occ
|    14  |   -.177702E+01    |   0.00000      |                   <- occ
|    15  |   0.308699E+00    |   0.00000      |                   <- occ
+--------+-------------------+----------------+                   <- occ
Spin 2, kpoint (-0.250000 -0.333333 -0.333333 ) weight = 0.111111
+--------+-------------------+----------------+
|  Band  |   Eigenvalue      |    Occupancy   |                   <- occ
+--------+-------------------+----------------+                   <- occ
|     8  |   -.586986E+01    |   1.00000      |                   <- occ
|     9  |   -.219074E+01    |  0.219438E-10  |                   <- occ
|    10  |   -.207451E+01    |  0.621170E-13  |                   <- occ
|    11  |   -.195400E+01    |   0.00000      |                   <- occ
|    12  |   -.116093E+01    |   0.00000      |                   <- occ
|    13  |   -.113182E+01    |   0.00000      |                   <- occ
|    14  |   -.220472E+00    |   0.00000      |                   <- occ
|    15  |   0.162150E+01    |   0.00000      |                   <- occ
+--------+-------------------+----------------+                   <- occ
Spin 2, kpoint (-0.250000  0.000000 -0.333333 ) weight = 0.111111
+--------+-------------------+----------------+
|  Band  |   Eigenvalue      |    Occupancy   |                   <- occ
+--------+-------------------+----------------+                   <- occ
|     8  |   -.581475E+01    |   1.00000      |                   <- occ
|     9  |   -.244369E+01    |  0.786735E-06  |                   <- occ
|    10  |   -.216611E+01    |  0.669209E-11  |                   <- occ
|    11  |   -.200927E+01    |  0.172085E-14  |                   <- occ
|    12  |   -.120121E+01    |   0.00000      |                   <- occ
|    13  |   -.101397E+01    |   0.00000      |                   <- occ
|    14  |   -.418866E+00    |   0.00000      |                   <- occ
|    15  |   0.122869E+01    |   0.00000      |                   <- occ
+--------+-------------------+----------------+                   <- occ
Spin 2, kpoint (-0.250000  0.000000  0.333333 ) weight = 0.111111
+--------+-------------------+----------------+
|  Band  |   Eigenvalue      |    Occupancy   |                   <- occ
+--------+-------------------+----------------+                   <- occ
|     8  |   -.581475E+01    |   1.00000      |                   <- occ
|     9  |   -.244369E+01    |  0.786735E-06  |                   <- occ
|    10  |   -.216611E+01    |  0.669209E-11  |                   <- occ
|    11  |   -.200927E+01    |  0.172085E-14  |                   <- occ
|    12  |   -.120121E+01    |   0.00000      |                   <- occ
|    13  |   -.101397E+01    |   0.00000      |                   <- occ
|    14  |   -.418866E+00    |   0.00000      |                   <- occ
|    15  |   0.122869E+01    |   0.00000      |                   <- occ
+--------+-------------------+----------------+                   <- occ
Spin 2, kpoint (-0.250000  0.333333  0.333333 ) weight = 0.111111
+--------+-------------------+----------------+
|  Band  |   Eigenvalue      |    Occupancy   |                   <- occ
+--------+-------------------+----------------+                   <- occ
|     8  |   -.586986E+01    |   1.00000      |                   <- occ
|     9  |   -.219074E+01    |  0.219438E-10  |                   <- occ
|    10  |   -.207451E+01    |  0.621170E-13  |                   <- occ
|    11  |   -.195400E+01    |   0.00000      |                   <- occ
|    12  |   -.116093E+01    |   0.00000      |                   <- occ
|    13  |   -.113182E+01    |   0.00000      |                   <- occ
|    14  |   -.220472E+00    |   0.00000      |                   <- occ
|    15  |   0.162150E+01    |   0.00000      |                   <- occ
+--------+-------------------+----------------+                   <- occ
Spin 2, kpoint ( 0.250000  0.333333  0.000000 ) weight = 0.111111
+--------+-------------------+----------------+
|  Band  |   Eigenvalue      |    Occupancy   |                   <- occ
+--------+-------------------+----------------+                   <- occ
|     8  |   -.581475E+01    |   1.00000      |                   <- occ
|     9  |   -.244369E+01    |  0.786744E-06  |                   <- occ
|    10  |   -.216611E+01    |  0.669198E-11  |                   <- occ
|    11  |   -.200927E+01    |  0.172085E-14  |                   <- occ
|    12  |   -.120121E+01    |   0.00000      |                   <- occ
|    13  |   -.101397E+01    |   0.00000      |                   <- occ
|    14  |   -.418865E+00    |   0.00000      |                   <- occ
|    15  |   0.122869E+01    |   0.00000      |                   <- occ
+--------+-------------------+----------------+                   <- occ
Spin 2, kpoint (-0.250000 -0.333333  0.333333 ) weight = 0.111111
+--------+-------------------+----------------+
|  Band  |   Eigenvalue      |    Occupancy   |                   <- occ
+--------+-------------------+----------------+                   <- occ
|     8  |   -.586986E+01    |   1.00000      |                   <- occ
|     9  |   -.219074E+01    |  0.219437E-10  |                   <- occ
|    10  |   -.207451E+01    |  0.621170E-13  |                   <- occ
|    11  |   -.195400E+01    |   0.00000      |                   <- occ
|    12  |   -.116093E+01    |   0.00000      |                   <- occ
|    13  |   -.113182E+01    |   0.00000      |                   <- occ
|    14  |   -.220471E+00    |   0.00000      |                   <- occ
|    15  |   0.162150E+01    |   0.00000      |                   <- occ
+--------+-------------------+----------------+                   <- occ
Spin 2, kpoint (-0.250000  0.000000  0.000000 ) weight = 0.111111
+--------+-------------------+----------------+
|  Band  |   Eigenvalue      |    Occupancy   |                   <- occ
+--------+-------------------+----------------+                   <- occ
|     8  |   -.581897E+01    |   1.00000      |                   <- occ
|     9  |   -.280395E+01    |  0.120903E-01  |                   <- occ
|    10  |   -.230468E+01    |  0.363416E-08  |                   <- occ
|    11  |   -.197850E+01    |  0.333067E-15  |                   <- occ
|    12  |   -.102737E+01    |   0.00000      |                   <- occ
|    13  |   -.102737E+01    |   0.00000      |                   <- occ
|    14  |   -.623846E+00    |   0.00000      |                   <- occ
|    15  |   0.190806E+01    |   0.00000      |                   <- occ
+--------+-------------------+----------------+                   <- occ
Spin 2, kpoint (-0.250000  0.333333  0.000000 ) weight = 0.111111
+--------+-------------------+----------------+
|  Band  |   Eigenvalue      |    Occupancy   |                   <- occ
+--------+-------------------+----------------+                   <- occ
|     8  |   -.581475E+01    |   1.00000      |                   <- occ
|     9  |   -.244369E+01    |  0.786744E-06  |                   <- occ
|    10  |   -.216611E+01    |  0.669198E-11  |                   <- occ
|    11  |   -.200927E+01    |  0.172085E-14  |                   <- occ
|    12  |   -.120121E+01    |   0.00000      |                   <- occ
|    13  |   -.101397E+01    |   0.00000      |                   <- occ
|    14  |   -.418865E+00    |   0.00000      |                   <- occ
|    15  |   0.122869E+01    |   0.00000      |                   <- occ
+--------+-------------------+----------------+                   <- occ
Spin 2, kpoint ( 0.250000 -0.333333  0.333333 ) weight = 0.111111
+--------+-------------------+----------------+
|  Band  |   Eigenvalue      |    Occupancy   |                   <- occ
+--------+-------------------+----------------+                   <- occ
|     8  |   -.586986E+01    |   1.00000      |                   <- occ
|     9  |   -.219074E+01    |  0.219437E-10  |                   <- occ
|    10  |   -.207451E+01    |  0.621170E-13  |                   <- occ
|    11  |   -.195400E+01    |   0.00000      |                   <- occ
|    12  |   -.116093E+01    |   0.00000      |                   <- occ
|    13  |   -.113182E+01    |   0.00000      |                   <- occ
|    14  |   -.220471E+00    |   0.00000      |                   <- occ
|    15  |   0.162150E+01    |   0.00000      |                   <- occ
+--------+-------------------+----------------+                   <- occ
  achieved Hubbard U energy convergence:   4.4225269048639437E-007
Have a nice day.

Writing analysis data to MnO.castep_bin

Writing model to MnO.check
                            Ewald force:
Species #   1 Atom #   1 Fx: 483.919     Fy:0.185030E-13 Fz:0.185420E-13 eV/A
Species #   2 Atom #   1 Fx:-483.919     Fy:-.184017E-13 Fz:-.185483E-13 eV/A

 Pseudo atomic calculation performed for O 2s2 2p4

 Converged in 24 iterations to a total energy of -431.0932 eV

 Pseudo atomic calculation performed for Mn 3s2 3p6 3d5 4s2

 Converged in 38 iterations to a total energy of -2902.3718 eV
  Accepting available Hubbard U occ matrix: 

     Hubbard U occupation numbers
     ----------------------------
Species   Ion   l  spin               occupancies
==================================================================
  Mn       1    2   up:   0.78  0.98  0.98  1.00  1.00
                    dn:  -0.00  0.00  0.32  0.32  0.35
==================================================================

 Density matrix in cubic harmonics:
     0.9451     0.0000    -0.0000     0.0947     0.0000
     0.0000     0.0000     0.0000     0.0000     0.0000
     0.0000     0.9996    -0.0000    -0.0000    -0.0000
     0.0000     0.0000     0.0000     0.0000     0.0000
    -0.0000    -0.0000     0.9790     0.0000    -0.0000
     0.0000     0.0000     0.0000     0.0000     0.0000
     0.0947    -0.0000     0.0000     0.8357     0.0000
     0.0000     0.0000     0.0000     0.0000     0.0000
     0.0000    -0.0000    -0.0000     0.0000     0.9790
     0.0000     0.0000     0.0000     0.0000     0.0000
 Hermiticity:              (0.21266805273959521,0.0000000000000000)
 Density matrix in cubic harmonics:
     0.0873    -0.0000    -0.0000    -0.1511    -0.0000
     0.0000     0.0000     0.0000     0.0000     0.0000
    -0.0000     0.0000    -0.0000     0.0000    -0.0000
     0.0000     0.0000     0.0000     0.0000     0.0000
    -0.0000    -0.0000     0.3220    -0.0000    -0.0000
     0.0000     0.0000     0.0000     0.0000     0.0000
    -0.1511     0.0000    -0.0000     0.2617     0.0000
     0.0000     0.0000     0.0000     0.0000     0.0000
    -0.0000    -0.0000    -0.0000     0.0000     0.3220
     0.0000     0.0000     0.0000     0.0000     0.0000
 Hermiticity:              (0.66388049509838865,0.0000000000000000)
Hubbard U energy: Ha   =   -0.016850220585
Hubbard U forces Ha/A    1     7.747877115931    4.724315314592    4.724315314592    0.000000000001   -0.000000000000    0.000000000000
Hubbard U forces Ha/A    2     4.724315314592    4.724315314592    4.724315314592   -0.000000000042   -0.000000000000    0.000000000000
  achieved Hubbard U energy convergence:   7.3498644949913272E-007

 *********************** Ewald forces ***********************
 *                                                          *
 *               Cartesian components (eV/A)                *
 * -------------------------------------------------------- *
 *                         x            y            z      *
 *                                                          *
 * O               1    483.91934      0.00000      0.00000 *
 * Mn              1   -483.91934     -0.00000     -0.00000 *
 *                                                          *
 ************************************************************

 ****************** Local potential forces ******************
 *                                                          *
 *               Cartesian components (eV/A)                *
 * -------------------------------------------------------- *
 *                         x            y            z      *
 *                                                          *
 * O               1   -453.52921     -0.00000      0.00001 *
 * Mn              1    496.14248      0.00001      0.00000 *
 *                                                          *
 ************************************************************

 **************** Non-local potential forces ****************
 *                                                          *
 *               Cartesian components (eV/A)                *
 * -------------------------------------------------------- *
 *                         x            y            z      *
 *                                                          *
 * O               1    -30.27505      0.00000     -0.00000 *
 * Mn              1    -13.36811     -0.00001     -0.00000 *
 *                                                          *
 ************************************************************

 ************** External Efield and/or dipole ***************
 *                                                          *
 *               Cartesian components (eV/A)                *
 * -------------------------------------------------------- *
 *                         x            y            z      *
 *                                                          *
 * O               1      0.00000      0.00000      0.00000 *
 * Mn              1      0.00000      0.00000      0.00000 *
 *                                                          *
 ************************************************************

 ***************** DM correction to forces ******************
 *                                                          *
 *               Cartesian components (eV/A)                *
 * -------------------------------------------------------- *
 *                         x            y            z      *
 *                                                          *
 * O               1      0.00000      0.00000      0.00000 *
 * Mn              1      0.00000      0.00000      0.00000 *
 *                                                          *
 ************************************************************

 ***************** Hubbard potential forces *****************
 *                                                          *
 *               Cartesian components (eV/A)                *
 * -------------------------------------------------------- *
 *                         x            y            z      *
 *                                                          *
 * O               1      0.00000     -0.00000      0.00000 *
 * Mn              1     -0.00000     -0.00000      0.00000 *
 *                                                          *
 ************************************************************

 ************************** Forces **************************
 *                                                          *
 *               Cartesian components (eV/A)                *
 * -------------------------------------------------------- *
 *                         x            y            z      *
 *                                                          *
 * O               1      0.63003     -0.00000      0.00000 *
 * Mn              1     -0.63003      0.00000     -0.00000 *
 *                                                          *
 ************************************************************

 Pseudo atomic calculation performed for O 2s2 2p4

 Converged in 24 iterations to a total energy of -431.0932 eV

 Pseudo atomic calculation performed for Mn 3s2 3p6 3d5 4s2

 Converged in 38 iterations to a total energy of -2902.3718 eV
Charge spilling parameter for spin component 1 = 0.18%
Charge spilling parameter for spin component 2 = 0.16%

                   Orbital Populations                  
  ---------------------------------------------------------------
     Ion    Atom   Orbital              Up        Down      Spin
  ---------------------------------------------------------------
      O     1      S                    0.963     0.959     0.004
      O     1      Px                   0.672     0.736    -0.064
      O     1      Py                   0.901     0.725     0.177
      O     1      Pz                   0.901     0.725     0.177
     Mn     1      S                    0.999     1.000    -0.001
     Mn     1      Px                   0.998     0.998     0.000
     Mn     1      Py                   1.000     1.000     0.000
     Mn     1      Pz                   1.000     1.000     0.000
     Mn     1      Dzz                  0.928     0.067     0.861
     Mn     1      Dzy                  1.000     0.000     1.000
     Mn     1      Dzx                  0.971     0.254     0.717
     Mn     1      Dxx-yy               0.784     0.200     0.584
     Mn     1      Dxy                  0.971     0.254     0.717
     Mn     1      S                    0.611     0.021     0.590
     Mn     1      Px                   0.038     0.022     0.016
     Mn     1      Py                   0.131     0.021     0.109
     Mn     1      Pz                   0.131     0.021     0.109
  ---------------------------------------------------------------
                           Total:      12.999     8.001     4.997
  ---------------------------------------------------------------
The total projected populations are: spin up   12.999   0.000, spin down    8.001   0.000, total   21.000   0.000

     Atomic Populations (Mulliken)
     -----------------------------
Species          Ion Spin      s      p      d      f     Total  Charge(e)   Spin(hbar/2)
=========================================================================================
  O               1   up:     0.96   2.47   0.00   0.00   3.44    -0.58        0.29
                  1   dn:     0.96   2.19   0.00   0.00   3.14
  Mn              1   up:     1.61   3.30   4.65   0.00   9.56     0.58        4.70
                  1   dn:     1.02   3.06   0.77   0.00   4.86
=========================================================================================

                 Bond                   Population        Spin       Length (A)
================================================================================
               O 1 -- Mn 1                   0.64        -0.04          1.60000
================================================================================


Writing analysis data to MnO.castep_bin

Writing model to MnO.check
Initialisation time =     13.38 s
Calculation time    =     15.06 s
Finalisation time   =      0.13 s
Total time          =     28.57 s
Peak Memory Use     = 519296 kB
  
Overall parallel efficiency rating: Good (76%)                                  
  
Data was distributed by:-
k-point (2-way); efficiency rating: Good (76%)                                  
  
Parallel notes:
1) Calculation only took 28.5 s, so efficiency estimates may be inaccurate.     
2) k-points were not fully distributed, there were 5 k-points per process.      
  
Efficiencies are estimated from the ratio of communication time to total time,
and do not include all the effects of serial operations or load imbalance.
